 argument  1 = Frag-00000009.nw
  NWChem w/ OpenMP: maximum threads =    7
                                         
                                         
 
 
              Northwest Computational Chemistry Package (NWChem) 6.8
              ------------------------------------------------------
 
 
                    Environmental Molecular Sciences Laboratory
                       Pacific Northwest National Laboratory
                                Richland, WA 99352
 
                              Copyright (c) 1994-2018
                       Pacific Northwest National Laboratory
                            Battelle Memorial Institute
 
             NWChem is an open-source computational chemistry package
                        distributed under the terms of the
                      Educational Community License (ECL) 2.0
             A copy of the license is included with this distribution
                              in the LICENSE.TXT file
 
                                  ACKNOWLEDGMENT
                                  --------------

            This software and its documentation were developed at the
            EMSL at Pacific Northwest National Laboratory, a multiprogram
            national laboratory, operated for the U.S. Department of Energy
            by Battelle under Contract Number DE-AC05-76RL01830. Support
            for this work was provided by the Department of Energy Office
            of Biological and Environmental Research, Office of Basic
            Energy Sciences, and the Office of Advanced Scientific Computing.


           Job information
           ---------------

    hostname        = i10r3n16
    program         = /public/software/apps/nwchem-DCU/6.8.1/hpcx-2.4.1-intel2017/bin/LINUX64/nwchem
    date            = Sat Mar 19 20:04:12 2022

    compiled        = Wed_Feb_19_20:38:21_2020
    source          = /public/software/apps/nwchem-DCU/6.8.1/hpcx-2.4.1-intel2017
    nwchem branch   = Development
    nwchem revision = nwchem_on_git-947-g0b42727
    ga revision     = 5.7.0
    use scalapack   = F
    input           = Frag-00000009.nw
    prefix          = LoadBalanceApplication.
    data base       = ./LoadBalanceApplication.db
    status          = startup
    nproc           =        4
    time left       =     -1s



           Memory information
           ------------------

    heap     =   13107200 doubles =    100.0 Mbytes
    stack    =   13107197 doubles =    100.0 Mbytes
    global   =   26214400 doubles =    200.0 Mbytes (distinct from heap & stack)
    total    =   52428797 doubles =    400.0 Mbytes
    verify   = yes
    hardfail = no 


           Directory information
           ---------------------
 
  0 permanent = .
  0 scratch   = .
 
 
 
 
                                NWChem Input Module
                                -------------------
 
 
                                   Frag-00000009
                                   -------------

 Scaling coordinates for geometry "geometry" by  1.889725989
 (inverse scale =  0.529177249)

 C1  symmetry detected

          ------
          auto-z
          ------
  no constraints, skipping   0.000000000000000E+000
  no constraints, skipping   0.000000000000000E+000
 
 
                             Geometry "geometry" -> ""
                             -------------------------
 
 Output coordinates in angstroms (scale by  1.889725989 to convert to a.u.)
 
  No.       Tag          Charge          X              Y              Z
 ---- ---------------- ---------- -------------- -------------- --------------
    1 C                    6.0000    -0.97008936    -2.09385122    -0.01096484
    2 C                    6.0000     0.51680775    -1.81236196     0.07940538
    3 C                    6.0000     0.73311690    -0.36408209     0.48022677
    4 C                    6.0000     0.09412021     0.47914281    -0.59027452
    5 C                    6.0000     0.21485307     1.92867261    -0.33447592
    6 O                    8.0000    -0.53992931     2.46913804     0.44055290
    7 H                    1.0000    -1.56652702    -1.39430960     0.60448104
    8 H                    1.0000    -1.27799585    -2.02233003    -1.08931975
    9 H                    1.0000    -1.13565853    -3.15849775     0.27875335
   10 H                    1.0000     1.02939336    -2.01174951    -0.89375370
   11 H                    1.0000     1.00290438    -2.48122501     0.83509796
   12 H                    1.0000     1.84042527    -0.21153373     0.54526658
   13 H                    1.0000     0.33241835    -0.14497546     1.48056019
   14 H                    1.0000    -0.98396437     0.14351938    -0.64367432
   15 H                    1.0000     0.58120530     0.17765875    -1.56327065
   16 H                    1.0000     0.96438208     2.52521768    -0.82206514
 
      Atomic Mass 
      ----------- 
 
      C                 12.000000
      O                 15.994910
      H                  1.007825
 

 Effective nuclear repulsion energy (a.u.)     237.5368165292

            Nuclear Dipole moment (a.u.) 
            ----------------------------
        X                 Y               Z
 ---------------- ---------------- ----------------
     0.0000000000    -0.0000000000     0.0000000000
 


                                Z-matrix (autoz)
                                -------- 

 Units are Angstrom for bonds and degrees for angles
 
      Type          Name      I     J     K     L     M      Value
      ----------- --------  ----- ----- ----- ----- ----- ----------
    1 Stretch                  1     2                       1.51600
    2 Stretch                  1     7                       1.10629
    3 Stretch                  1     8                       1.12373
    4 Stretch                  1     9                       1.11572
    5 Stretch                  2     3                       1.51821
    6 Stretch                  2    10                       1.11783
    7 Stretch                  2    11                       1.12015
    8 Stretch                  3     4                       1.50510
    9 Stretch                  3    12                       1.11966
   10 Stretch                  3    13                       1.09965
   11 Stretch                  4     5                       1.47687
   12 Stretch                  4    14                       1.13038
   13 Stretch                  4    15                       1.12910
   14 Stretch                  5     6                       1.20933
   15 Stretch                  5    16                       1.07490
   16 Bend                     1     2     3               109.42695
   17 Bend                     1     2    10               111.39132
   18 Bend                     1     2    11               110.79148
   19 Bend                     2     1     7               112.22289
   20 Bend                     2     1     8               108.30825
   21 Bend                     2     1     9               107.89349
   22 Bend                     2     3     4               106.62909
   23 Bend                     2     3    12               106.63125
   24 Bend                     2     3    13               112.22973
   25 Bend                     3     2    10               109.55203
   26 Bend                     3     2    11               109.24914
   27 Bend                     3     4     5               113.07755
   28 Bend                     3     4    14               105.79340
   29 Bend                     3     4    15               106.27059
   30 Bend                     4     3    12               112.63488
   31 Bend                     4     3    13               112.37581
   32 Bend                     4     5     6               119.90878
   33 Bend                     4     5    16               121.54320
   34 Bend                     5     4    14               112.18290
   35 Bend                     5     4    15               112.08989
   36 Bend                     6     5    16               118.54797
   37 Bend                     7     1     8               110.23567
   38 Bend                     7     1     9               112.26707
   39 Bend                     8     1     9               105.62002
   40 Bend                    10     2    11               106.36901
   41 Bend                    12     3    13               106.28278
   42 Bend                    14     4    15               106.94454
   43 Torsion                  1     2     3     4         -60.13556
   44 Torsion                  1     2     3    12         179.30677
   45 Torsion                  1     2     3    13          63.31795
   46 Torsion                  2     3     4     5         179.61884
   47 Torsion                  2     3     4    14          56.45590
   48 Torsion                  2     3     4    15         -57.00162
   49 Torsion                  3     2     1     7         -23.75325
   50 Torsion                  3     2     1     8          98.16718
   51 Torsion                  3     2     1     9        -147.95060
   52 Torsion                  3     4     5     6         -80.18719
   53 Torsion                  3     4     5    16          99.72614
   54 Torsion                  4     3     2    10          62.25403
   55 Torsion                  4     3     2    11         178.40844
   56 Torsion                  5     4     3    12         -63.75503
   57 Torsion                  5     4     3    13          56.25617
   58 Torsion                  6     5     4    14          39.36532
   59 Torsion                  6     5     4    15         159.70729
   60 Torsion                  7     1     2    10        -145.03691
   61 Torsion                  7     1     2    11          96.76697
   62 Torsion                  8     1     2    10         -23.11648
   63 Torsion                  8     1     2    11        -141.31259
   64 Torsion                  9     1     2    10          90.76574
   65 Torsion                  9     1     2    11         -27.43038
   66 Torsion                 10     2     3    12         -58.30364
   67 Torsion                 10     2     3    13        -174.29246
   68 Torsion                 11     2     3    12          57.85077
   69 Torsion                 11     2     3    13         -58.13805
   70 Torsion                 12     3     4    14         173.08203
   71 Torsion                 12     3     4    15          59.62450
   72 Torsion                 13     3     4    14         -66.90677
   73 Torsion                 13     3     4    15         179.63571
   74 Torsion                 14     4     5    16        -140.72135
   75 Torsion                 15     4     5    16         -20.37938
 
 
            XYZ format geometry
            -------------------
    16
 geometry
 C                    -0.97008936    -2.09385122    -0.01096484
 C                     0.51680775    -1.81236196     0.07940538
 C                     0.73311690    -0.36408209     0.48022677
 C                     0.09412021     0.47914281    -0.59027452
 C                     0.21485307     1.92867261    -0.33447592
 O                    -0.53992931     2.46913804     0.44055290
 H                    -1.56652702    -1.39430960     0.60448104
 H                    -1.27799585    -2.02233003    -1.08931975
 H                    -1.13565853    -3.15849775     0.27875335
 H                     1.02939336    -2.01174951    -0.89375370
 H                     1.00290438    -2.48122501     0.83509796
 H                     1.84042527    -0.21153373     0.54526658
 H                     0.33241835    -0.14497546     1.48056019
 H                    -0.98396437     0.14351938    -0.64367432
 H                     0.58120530     0.17765875    -1.56327065
 H                     0.96438208     2.52521768    -0.82206514
 
 ==============================================================================
                                internuclear distances
 ------------------------------------------------------------------------------
       center one      |      center two      | atomic units |  angstroms
 ------------------------------------------------------------------------------
    2 C                |   1 C                |     2.86483  |     1.51600
    3 C                |   2 C                |     2.86900  |     1.51821
    4 C                |   3 C                |     2.84422  |     1.50510
    5 C                |   4 C                |     2.79088  |     1.47687
    6 O                |   5 C                |     2.28529  |     1.20933
    7 H                |   1 C                |     2.09058  |     1.10629
    8 H                |   1 C                |     2.12354  |     1.12373
    9 H                |   1 C                |     2.10840  |     1.11572
   10 H                |   2 C                |     2.11239  |     1.11783
   11 H                |   2 C                |     2.11678  |     1.12015
   12 H                |   3 C                |     2.11585  |     1.11966
   13 H                |   3 C                |     2.07804  |     1.09965
   14 H                |   4 C                |     2.13611  |     1.13038
   15 H                |   4 C                |     2.13369  |     1.12910
   16 H                |   5 C                |     2.03126  |     1.07490
 ------------------------------------------------------------------------------
                         number of included internuclear distances:         15
 ==============================================================================



 ==============================================================================
                                 internuclear angles
 ------------------------------------------------------------------------------
        center 1       |       center 2       |       center 3       |  degrees
 ------------------------------------------------------------------------------
    2 C                |   1 C                |   7 H                |   112.22
    2 C                |   1 C                |   8 H                |   108.31
    2 C                |   1 C                |   9 H                |   107.89
    7 H                |   1 C                |   8 H                |   110.24
    7 H                |   1 C                |   9 H                |   112.27
    8 H                |   1 C                |   9 H                |   105.62
    1 C                |   2 C                |   3 C                |   109.43
    1 C                |   2 C                |  10 H                |   111.39
    1 C                |   2 C                |  11 H                |   110.79
    3 C                |   2 C                |  10 H                |   109.55
    3 C                |   2 C                |  11 H                |   109.25
   10 H                |   2 C                |  11 H                |   106.37
    2 C                |   3 C                |   4 C                |   106.63
    2 C                |   3 C                |  12 H                |   106.63
    2 C                |   3 C                |  13 H                |   112.23
    4 C                |   3 C                |  12 H                |   112.63
    4 C                |   3 C                |  13 H                |   112.38
   12 H                |   3 C                |  13 H                |   106.28
    3 C                |   4 C                |   5 C                |   113.08
    3 C                |   4 C                |  14 H                |   105.79
    3 C                |   4 C                |  15 H                |   106.27
    5 C                |   4 C                |  14 H                |   112.18
    5 C                |   4 C                |  15 H                |   112.09
   14 H                |   4 C                |  15 H                |   106.94
    4 C                |   5 C                |   6 O                |   119.91
    4 C                |   5 C                |  16 H                |   121.54
    6 O                |   5 C                |  16 H                |   118.55
 ------------------------------------------------------------------------------
                            number of included internuclear angles:         27
 ==============================================================================





 Summary of "ao basis" -> "" (cartesian)
 ------------------------------------------------------------------------------
       Tag                 Description            Shells   Functions and Types
 ---------------- ------------------------------  ------  ---------------------
 *                           6-31g                    on all atoms 


 
                                 NWChem DFT Module
                                 -----------------
 
 
                                   Frag-00000009
 
 
                      Basis "ao basis" -> "ao basis" (cartesian)
                      -----
  C (Carbon)
  ----------
            Exponent  Coefficients 
       -------------- ---------------------------------------------------------
  1 S  3.04752490E+03  0.001835
  1 S  4.57369510E+02  0.014037
  1 S  1.03948690E+02  0.068843
  1 S  2.92101550E+01  0.232184
  1 S  9.28666300E+00  0.467941
  1 S  3.16392700E+00  0.362312
 
  2 S  7.86827240E+00 -0.119332
  2 S  1.88128850E+00 -0.160854
  2 S  5.44249300E-01  1.143456
 
  3 P  7.86827240E+00  0.068999
  3 P  1.88128850E+00  0.316424
  3 P  5.44249300E-01  0.744308
 
  4 S  1.68714400E-01  1.000000
 
  5 P  1.68714400E-01  1.000000
 
  O (Oxygen)
  ----------
            Exponent  Coefficients 
       -------------- ---------------------------------------------------------
  1 S  5.48467170E+03  0.001831
  1 S  8.25234950E+02  0.013950
  1 S  1.88046960E+02  0.068445
  1 S  5.29645000E+01  0.232714
  1 S  1.68975700E+01  0.470193
  1 S  5.79963530E+00  0.358521
 
  2 S  1.55396160E+01 -0.110778
  2 S  3.59993360E+00 -0.148026
  2 S  1.01376180E+00  1.130767
 
  3 P  1.55396160E+01  0.070874
  3 P  3.59993360E+00  0.339753
  3 P  1.01376180E+00  0.727159
 
  4 S  2.70005800E-01  1.000000
 
  5 P  2.70005800E-01  1.000000
 
  H (Hydrogen)
  ------------
            Exponent  Coefficients 
       -------------- ---------------------------------------------------------
  1 S  1.87311370E+01  0.033495
  1 S  2.82539370E+00  0.234727
  1 S  6.40121700E-01  0.813757
 
  2 S  1.61277800E-01  1.000000
 


 Summary of "ao basis" -> "ao basis" (cartesian)
 ------------------------------------------------------------------------------
       Tag                 Description            Shells   Functions and Types
 ---------------- ------------------------------  ------  ---------------------
 C                           6-31g                   5        9   3s2p
 O                           6-31g                   5        9   3s2p
 H                           6-31g                   2        2   2s




 Summary of "ao basis" -> "ao basis" (cartesian)
 ------------------------------------------------------------------------------
       Tag                 Description            Shells   Functions and Types
 ---------------- ------------------------------  ------  ---------------------
 C                           6-31g                   5        9   3s2p
 O                           6-31g                   5        9   3s2p
 H                           6-31g                   2        2   2s


  Caching 1-el integrals 
 
            General Information
            -------------------
          SCF calculation type: DFT
          Wavefunction type:  closed shell.
          No. of atoms     :    16
          No. of electrons :    48
           Alpha electrons :    24
            Beta electrons :    24
          Charge           :     0
          Spin multiplicity:     1
          Use of symmetry is: off; symmetry adaption is: off
          Maximum number of iterations:  30
          AO basis - number of functions:    74
                     number of shells:    50
          Convergence on energy requested:  1.00D-06
          Convergence on density requested:  1.00D-05
          Convergence on gradient requested:  5.00D-04
 
              XC Information
              --------------
                       M06-2X Method XC Functional
                     Hartree-Fock (Exact) Exchange  0.540          
                        M06-2X Exchange Functional  1.000          
                      M06-2X Correlation Potential  1.000          
 
             Grid Information
             ----------------
          Grid used for XC integration:  medium    
          Radial quadrature: Mura-Knowles        
          Angular quadrature: Lebedev. 
          Tag              B.-S. Rad. Rad. Pts. Rad. Cut. Ang. Pts.
          ---              ---------- --------- --------- ---------
          C                   0.70       49          12.0       434
          O                   0.60       49          13.0       434
          H                   0.35       45          13.0       434
          Grid pruning is: on 
          Number of quadrature shells:   744
          Spatial weights used:  Erf1
 
          Convergence Information
          -----------------------
          Convergence aids based upon iterative change in 
          total energy or number of iterations. 
          Levelshifting, if invoked, occurs when the 
          HOMO/LUMO gap drops below (HL_TOL):  1.00D-02
          DIIS, if invoked, will attempt to extrapolate 
          using up to (NFOCK): 10 stored Fock matrices.

                    Damping( 0%)  Levelshifting(0.5)       DIIS
                  --------------- ------------------- ---------------
          dE  on:    start            ASAP                start   
          dE off:    2 iters         30 iters            30 iters 

 
      Screening Tolerance Information
      -------------------------------
          Density screening/tol_rho:  1.00D-10
          AO Gaussian exp screening on grid/accAOfunc:  14
          CD Gaussian exp screening on grid/accCDfunc:  20
          XC Gaussian exp screening on grid/accXCfunc:  20
          Schwarz screening/accCoul:  1.00D-08

 
      Superposition of Atomic Density Guess
      -------------------------------------
 
 Sum of atomic energies:        -268.03794836
 
      Non-variational initial energy
      ------------------------------

 Total energy =    -271.896953
 1-e energy   =    -831.974975
 2-e energy   =     322.541205
 HOMO         =      -0.308230
 LUMO         =      -0.015844
 
   Time after variat. SCF:      0.4
   Time prior to 1st pass:      0.4

 Grid_pts file          = ./LoadBalanceApplication.gridpts.0
 Record size in doubles =  12289        No. of grid_pts per rec  =   3070
 Max. records in memory =     30        Max. recs in file   = 253312716


           Memory utilization after 1st SCF pass: 
           Heap Space remaining (MW):        6.44             6437088
          Stack Space remaining (MW):       13.11            13106348

   convergence    iter        energy       DeltaE   RMS-Dens  Diis-err    time
 ---------------- ----- ----------------- --------- --------- ---------  ------
 d= 0,ls=0.0,diis     1   -271.4028984132 -5.09D+02  2.42D-02  9.52D-01     1.3
 d= 0,ls=0.0,diis     2   -271.2959187778  1.07D-01  1.59D-02  2.45D+00     2.2
 d= 0,ls=0.0,diis     3   -271.5357178129 -2.40D-01  1.18D-03  7.86D-03     3.1
 d= 0,ls=0.0,diis     4   -271.5368395307 -1.12D-03  5.84D-04  1.66D-03     3.9
 d= 0,ls=0.0,diis     5   -271.5366907361  1.49D-04  2.61D-04  1.05D-04     4.8
  Resetting Diis
 d= 0,ls=0.0,diis     6   -271.5367066471 -1.59D-05  5.80D-05  1.40D-05     5.8
 d= 0,ls=0.0,diis     7   -271.5367084384 -1.79D-06  2.62D-05  1.00D-06     6.7
 d= 0,ls=0.0,diis     8   -271.5367084368  1.56D-09  9.67D-06  1.30D-06     7.5


         Total DFT energy =     -271.536708436832
      One electron energy =     -836.580163604030
           Coulomb energy =      366.804403268296
    Exchange-Corr. energy =      -39.297764630301
 Nuclear repulsion energy =      237.536816529203

 Numeric. integr. density =       48.000000534665

     Total iterative time =      7.1s


 
                       DFT Final Molecular Orbital Analysis
                       ------------------------------------
 
 Vector    1  Occ=2.000000D+00  E=-1.964070D+01
              MO Center= -5.4D-01,  2.5D+00,  4.4D-01, r^2= 1.5D-02
   Bfn.  Coefficient  Atom+Function         Bfn.  Coefficient  Atom+Function  
  ----- ------------  ---------------      ----- ------------  ---------------
    46      0.995692   6 O  s                47      0.025540   6 O  s         
 
 Vector    2  Occ=2.000000D+00  E=-1.063519D+01
              MO Center=  2.1D-01,  1.9D+00, -3.3D-01, r^2= 2.8D-02
   Bfn.  Coefficient  Atom+Function         Bfn.  Coefficient  Atom+Function  
  ----- ------------  ---------------      ----- ------------  ---------------
    37      0.995678   5 C  s                38      0.030457   5 C  s         
 
 Vector    3  Occ=2.000000D+00  E=-1.055358D+01
              MO Center=  9.9D-02,  4.7D-01, -5.8D-01, r^2= 4.6D-02
   Bfn.  Coefficient  Atom+Function         Bfn.  Coefficient  Atom+Function  
  ----- ------------  ---------------      ----- ------------  ---------------
    28      0.991986   4 C  s                19      0.089351   3 C  s         
    33     -0.033583   4 C  s                29      0.033376   4 C  s         
 
 Vector    4  Occ=2.000000D+00  E=-1.055174D+01
              MO Center=  7.3D-01, -3.6D-01,  4.7D-01, r^2= 4.9D-02
   Bfn.  Coefficient  Atom+Function         Bfn.  Coefficient  Atom+Function  
  ----- ------------  ---------------      ----- ------------  ---------------
    19      0.991200   3 C  s                28     -0.089427   4 C  s         
    10      0.040211   2 C  s                24     -0.033971   3 C  s         
    20      0.033359   3 C  s         
 
 Vector    5  Occ=2.000000D+00  E=-1.054778D+01
              MO Center=  5.2D-01, -1.8D+00,  8.0D-02, r^2= 3.2D-02
   Bfn.  Coefficient  Atom+Function         Bfn.  Coefficient  Atom+Function  
  ----- ------------  ---------------      ----- ------------  ---------------
    10      0.995080   2 C  s                19     -0.040182   3 C  s         
    15     -0.034775   2 C  s                11      0.033754   2 C  s         
 
 Vector    6  Occ=2.000000D+00  E=-1.053975D+01
              MO Center= -9.7D-01, -2.1D+00, -1.1D-02, r^2= 2.8D-02
   Bfn.  Coefficient  Atom+Function         Bfn.  Coefficient  Atom+Function  
  ----- ------------  ---------------      ----- ------------  ---------------
     1      0.995733   1 C  s                 2      0.032358   1 C  s         
     6     -0.028463   1 C  s         
 
 Vector    7  Occ=2.000000D+00  E=-1.192398D+00
              MO Center= -3.0D-01,  2.3D+00,  2.0D-01, r^2= 5.2D-01
   Bfn.  Coefficient  Atom+Function         Bfn.  Coefficient  Atom+Function  
  ----- ------------  ---------------      ----- ------------  ---------------
    47      0.425466   6 O  s                51      0.406579   6 O  s         
    38      0.235235   5 C  s                46     -0.191982   6 O  s         
    41      0.121279   5 C  pz               39     -0.118915   5 C  px        
    37     -0.117380   5 C  s                50     -0.114332   6 O  pz        
    48      0.111168   6 O  px               49     -0.081891   6 O  py        
 
 Vector    8  Occ=2.000000D+00  E=-9.258619D-01
              MO Center=  2.9D-01, -6.1D-01,  1.6D-03, r^2= 2.2D+00
   Bfn.  Coefficient  Atom+Function         Bfn.  Coefficient  Atom+Function  
  ----- ------------  ---------------      ----- ------------  ---------------
    20      0.233926   3 C  s                29      0.202620   4 C  s         
    11      0.200420   2 C  s                24      0.192134   3 C  s         
    33      0.170200   4 C  s                15      0.158569   2 C  s         
     2      0.127053   1 C  s                19     -0.126066   3 C  s         
    28     -0.108618   4 C  s                10     -0.107771   2 C  s         
 
 Vector    9  Occ=2.000000D+00  E=-8.396957D-01
              MO Center= -7.5D-02, -6.3D-01, -2.0D-01, r^2= 3.7D+00
   Bfn.  Coefficient  Atom+Function         Bfn.  Coefficient  Atom+Function  
  ----- ------------  ---------------      ----- ------------  ---------------
    33     -0.229901   4 C  s                29     -0.226835   4 C  s         
     2      0.216900   1 C  s                 6      0.203369   1 C  s         
    11      0.189190   2 C  s                15      0.180876   2 C  s         
    38     -0.126964   5 C  s                28      0.120687   4 C  s         
    51      0.119795   6 O  s                 1     -0.115178   1 C  s         
 
 Vector   10  Occ=2.000000D+00  E=-7.563181D-01
              MO Center= -2.2D-02, -6.4D-01,  1.8D-02, r^2= 4.1D+00
   Bfn.  Coefficient  Atom+Function         Bfn.  Coefficient  Atom+Function  
  ----- ------------  ---------------      ----- ------------  ---------------
     6      0.249278   1 C  s                24     -0.242895   3 C  s         
     2      0.225421   1 C  s                20     -0.216379   3 C  s         
    38      0.148325   5 C  s                42      0.131698   5 C  s         
    33      0.124267   4 C  s                 1     -0.118959   1 C  s         
    51     -0.116251   6 O  s                19      0.114137   3 C  s         
 
 Vector   11  Occ=2.000000D+00  E=-6.793227D-01
              MO Center=  2.4D-01,  3.0D-01, -1.9D-01, r^2= 5.3D+00
   Bfn.  Coefficient  Atom+Function         Bfn.  Coefficient  Atom+Function  
  ----- ------------  ---------------      ----- ------------  ---------------
    15      0.236882   2 C  s                38      0.229068   5 C  s         
    42      0.217493   5 C  s                11      0.177797   2 C  s         
    73      0.173044  16 H  s                51     -0.170771   6 O  s         
     6     -0.137292   1 C  s                39      0.125004   5 C  px        
    47     -0.123421   6 O  s                31      0.117275   4 C  py        
 
 Vector   12  Occ=2.000000D+00  E=-6.475737D-01
              MO Center=  2.9D-01, -1.0D-01, -3.4D-02, r^2= 4.4D+00
   Bfn.  Coefficient  Atom+Function         Bfn.  Coefficient  Atom+Function  
  ----- ------------  ---------------      ----- ------------  ---------------
    24      0.227472   3 C  s                15     -0.195292   2 C  s         
    33     -0.180448   4 C  s                20      0.156142   3 C  s         
     6      0.143762   1 C  s                11     -0.139619   2 C  s         
    29     -0.128849   4 C  s                23      0.128010   3 C  pz        
    38      0.125818   5 C  s                42      0.125360   5 C  s         
 
 Vector   13  Occ=2.000000D+00  E=-5.786845D-01
              MO Center=  1.7D-01,  7.7D-01, -1.8D-01, r^2= 3.8D+00
   Bfn.  Coefficient  Atom+Function         Bfn.  Coefficient  Atom+Function  
  ----- ------------  ---------------      ----- ------------  ---------------
    40      0.260206   5 C  py               49      0.240174   6 O  py        
    31     -0.228339   4 C  py               39      0.161841   5 C  px        
    23     -0.147921   3 C  pz               32     -0.120881   4 C  pz        
    51      0.121076   6 O  s                44      0.120331   5 C  py        
    53      0.120336   6 O  py               71      0.118105  15 H  s         
 
 Vector   14  Occ=2.000000D+00  E=-5.476590D-01
              MO Center=  4.9D-02, -3.7D-01,  2.2D-02, r^2= 4.2D+00
   Bfn.  Coefficient  Atom+Function         Bfn.  Coefficient  Atom+Function  
  ----- ------------  ---------------      ----- ------------  ---------------
    21      0.217668   3 C  px               30      0.202471   4 C  px        
     4     -0.176857   1 C  py               40     -0.148558   5 C  py        
    51      0.138270   6 O  s                50      0.136855   6 O  pz        
    65      0.133318  12 H  s                69     -0.122888  14 H  s         
    22      0.115166   3 C  py               25      0.112274   3 C  px        
 
 Vector   15  Occ=2.000000D+00  E=-5.208391D-01
              MO Center= -1.6D-01,  2.4D-01,  7.1D-02, r^2= 6.0D+00
   Bfn.  Coefficient  Atom+Function         Bfn.  Coefficient  Atom+Function  
  ----- ------------  ---------------      ----- ------------  ---------------
    51      0.253329   6 O  s                48     -0.224636   6 O  px        
    14      0.221352   2 C  pz               41     -0.205945   5 C  pz        
    49      0.195478   6 O  py                5      0.179503   1 C  pz        
    50      0.154085   6 O  pz               32     -0.136879   4 C  pz        
    47      0.128067   6 O  s                52     -0.114737   6 O  px        
 
 Vector   16  Occ=2.000000D+00  E=-4.958097D-01
              MO Center=  1.2D-01,  6.3D-01,  1.3D-01, r^2= 4.2D+00
   Bfn.  Coefficient  Atom+Function         Bfn.  Coefficient  Atom+Function  
  ----- ------------  ---------------      ----- ------------  ---------------
    50      0.304284   6 O  pz               39      0.249137   5 C  px        
    21     -0.211944   3 C  px               32      0.194655   4 C  pz        
    54      0.175947   6 O  pz                3      0.157237   1 C  px        
    12     -0.136738   2 C  px               51      0.129184   6 O  s         
    65     -0.129045  12 H  s                22      0.122857   3 C  py        
 
 Vector   17  Occ=2.000000D+00  E=-4.792932D-01
              MO Center= -3.3D-01, -1.3D-01, -8.0D-02, r^2= 5.7D+00
   Bfn.  Coefficient  Atom+Function         Bfn.  Coefficient  Atom+Function  
  ----- ------------  ---------------      ----- ------------  ---------------
    48      0.288697   6 O  px               41      0.227200   5 C  pz        
     5      0.213659   1 C  pz               52      0.165955   6 O  px        
    31     -0.160018   4 C  py               57     -0.140569   8 H  s         
     4     -0.139139   1 C  py               23     -0.134846   3 C  pz        
    14      0.133003   2 C  pz               51     -0.129217   6 O  s         
 
 Vector   18  Occ=2.000000D+00  E=-4.714664D-01
              MO Center= -4.7D-01, -7.9D-01,  1.8D-01, r^2= 4.0D+00
   Bfn.  Coefficient  Atom+Function         Bfn.  Coefficient  Atom+Function  
  ----- ------------  ---------------      ----- ------------  ---------------
     4      0.262984   1 C  py               55      0.193338   7 H  s         
    13      0.161397   2 C  py               40     -0.160998   5 C  py        
    23     -0.155128   3 C  pz               30      0.153981   4 C  px        
     5      0.150235   1 C  pz               56      0.139962   7 H  s         
    67     -0.133154  13 H  s                22     -0.125164   3 C  py        
 
 Vector   19  Occ=2.000000D+00  E=-4.423843D-01
              MO Center= -1.9D-01, -3.0D-01,  6.5D-03, r^2= 5.0D+00
   Bfn.  Coefficient  Atom+Function         Bfn.  Coefficient  Atom+Function  
  ----- ------------  ---------------      ----- ------------  ---------------
    12      0.270041   2 C  px                3     -0.244424   1 C  px        
    50      0.211032   6 O  pz               30     -0.176211   4 C  px        
    48      0.175101   6 O  px               39      0.153328   5 C  px        
    16      0.147898   2 C  px               69      0.146214  14 H  s         
    54      0.138832   6 O  pz               63      0.122195  11 H  s         
 
 Vector   20  Occ=2.000000D+00  E=-4.240049D-01
              MO Center= -8.6D-02, -1.3D-01, -2.3D-01, r^2= 4.6D+00
   Bfn.  Coefficient  Atom+Function         Bfn.  Coefficient  Atom+Function  
  ----- ------------  ---------------      ----- ------------  ---------------
    32      0.274562   4 C  pz               23     -0.209546   3 C  pz        
    48     -0.196936   6 O  px               71     -0.179505  15 H  s         
     5      0.166453   1 C  pz               72     -0.165784  15 H  s         
    36      0.156544   4 C  pz               41     -0.146693   5 C  pz        
    52     -0.132878   6 O  px               27     -0.122438   3 C  pz        
 
 Vector   21  Occ=2.000000D+00  E=-4.005262D-01
              MO Center=  9.4D-02, -1.0D+00,  7.5D-02, r^2= 3.6D+00
   Bfn.  Coefficient  Atom+Function         Bfn.  Coefficient  Atom+Function  
  ----- ------------  ---------------      ----- ------------  ---------------
    22      0.250941   3 C  py               13     -0.219500   2 C  py        
    14     -0.216291   2 C  pz               62      0.177613  10 H  s         
    61      0.171452  10 H  s                23      0.165387   3 C  pz        
     4      0.154303   1 C  py                5      0.154947   1 C  pz        
    55      0.148214   7 H  s                56      0.146663   7 H  s         
 
 Vector   22  Occ=2.000000D+00  E=-3.875871D-01
              MO Center=  3.2D-01, -9.6D-01,  2.0D-01, r^2= 3.4D+00
   Bfn.  Coefficient  Atom+Function         Bfn.  Coefficient  Atom+Function  
  ----- ------------  ---------------      ----- ------------  ---------------
    21      0.252914   3 C  px                3      0.219737   1 C  px        
    12     -0.206102   2 C  px               66      0.200933  12 H  s         
    65      0.196584  12 H  s                13     -0.180664   2 C  py        
    22      0.169472   3 C  py                4      0.154989   1 C  py        
    25      0.142938   3 C  px               68     -0.128585  13 H  s         
 
 Vector   23  Occ=2.000000D+00  E=-3.806936D-01
              MO Center=  3.2D-02, -9.3D-01,  1.8D-02, r^2= 4.6D+00
   Bfn.  Coefficient  Atom+Function         Bfn.  Coefficient  Atom+Function  
  ----- ------------  ---------------      ----- ------------  ---------------
    30      0.211405   4 C  px               14      0.198067   2 C  pz        
    63      0.193066  11 H  s                64      0.187390  11 H  s         
     5     -0.180139   1 C  pz               50     -0.170204   6 O  pz        
    34      0.157165   4 C  px               57      0.156496   8 H  s         
    58      0.153000   8 H  s                21     -0.147606   3 C  px        
 
 Vector   24  Occ=2.000000D+00  E=-3.209503D-01
              MO Center= -1.7D-01,  2.0D+00,  9.7D-02, r^2= 2.4D+00
   Bfn.  Coefficient  Atom+Function         Bfn.  Coefficient  Atom+Function  
  ----- ------------  ---------------      ----- ------------  ---------------
    49      0.486093   6 O  py               53      0.361606   6 O  py        
    33      0.270260   4 C  s                48      0.261339   6 O  px        
    74     -0.261739  16 H  s                31      0.255157   4 C  py        
    35      0.206573   4 C  py               52      0.192766   6 O  px        
    73     -0.181194  16 H  s                40     -0.176887   5 C  py        
 
 Vector   25  Occ=0.000000D+00  E= 2.113859D-02
              MO Center= -1.9D-02,  1.9D+00, -1.0D-01, r^2= 2.2D+00
   Bfn.  Coefficient  Atom+Function         Bfn.  Coefficient  Atom+Function  
  ----- ------------  ---------------      ----- ------------  ---------------
    24      0.463570   3 C  s                45     -0.417065   5 C  pz        
    54      0.357110   6 O  pz               41     -0.352818   5 C  pz        
    43     -0.336655   5 C  px               50      0.313403   6 O  pz        
    39     -0.298462   5 C  px               52      0.294433   6 O  px        
    70     -0.288451  14 H  s                48      0.254953   6 O  px        
 
 Vector   26  Occ=0.000000D+00  E= 1.230493D-01
              MO Center=  3.7D-01, -1.2D+00, -6.3D-01, r^2= 5.4D+00
   Bfn.  Coefficient  Atom+Function         Bfn.  Coefficient  Atom+Function  
  ----- ------------  ---------------      ----- ------------  ---------------
    15      1.119667   2 C  s                62     -0.929356  10 H  s         
     6      0.879151   1 C  s                72     -0.853774  15 H  s         
    33      0.808446   4 C  s                58     -0.727437   8 H  s         
    66     -0.607034  12 H  s                24      0.567626   3 C  s         
    36     -0.480673   4 C  pz               64     -0.465260  11 H  s         
 
 Vector   27  Occ=0.000000D+00  E= 1.469262D-01
              MO Center= -9.1D-02, -6.3D-01, -1.2D-01, r^2= 7.4D+00
   Bfn.  Coefficient  Atom+Function         Bfn.  Coefficient  Atom+Function  
  ----- ------------  ---------------      ----- ------------  ---------------
     6      1.200781   1 C  s                60     -0.762100   9 H  s         
    72      0.755918  15 H  s                74      0.751486  16 H  s         
    42     -0.701741   5 C  s                56     -0.637573   7 H  s         
    68     -0.623272  13 H  s                70     -0.567952  14 H  s         
    64     -0.558269  11 H  s                34     -0.423246   4 C  px        
 
 Vector   28  Occ=0.000000D+00  E= 1.553228D-01
              MO Center=  4.1D-02, -1.2D+00,  1.4D-01, r^2= 5.9D+00
   Bfn.  Coefficient  Atom+Function         Bfn.  Coefficient  Atom+Function  
  ----- ------------  ---------------      ----- ------------  ---------------
    64      1.073145  11 H  s                 6      0.965433   1 C  s         
    24     -0.932530   3 C  s                15     -0.890636   2 C  s         
    70     -0.888815  14 H  s                33      0.846543   4 C  s         
    66      0.736771  12 H  s                56     -0.664143   7 H  s         
    58     -0.633362   8 H  s                35     -0.487905   4 C  py        
 
 Vector   29  Occ=0.000000D+00  E= 1.705223D-01
              MO Center= -9.0D-03, -5.3D-01, -1.7D-01, r^2= 6.9D+00
   Bfn.  Coefficient  Atom+Function         Bfn.  Coefficient  Atom+Function  
  ----- ------------  ---------------      ----- ------------  ---------------
    42      0.984716   5 C  s                58      0.896768   8 H  s         
    24      0.881909   3 C  s                56     -0.838384   7 H  s         
    74     -0.793894  16 H  s                68     -0.743659  13 H  s         
     9      0.697863   1 C  pz               66     -0.696404  12 H  s         
    62      0.675792  10 H  s                35     -0.493947   4 C  py        
 
 Vector   30  Occ=0.000000D+00  E= 1.863290D-01
              MO Center= -1.1D-01, -1.2D+00,  5.5D-02, r^2= 6.9D+00
   Bfn.  Coefficient  Atom+Function         Bfn.  Coefficient  Atom+Function  
  ----- ------------  ---------------      ----- ------------  ---------------
    33     -1.253878   4 C  s                24      1.156696   3 C  s         
    60      1.140047   9 H  s                68     -0.930436  13 H  s         
    72      0.708888  15 H  s                 8      0.687778   1 C  py        
    15      0.606568   2 C  s                62     -0.553360  10 H  s         
     6     -0.524900   1 C  s                74      0.520984  16 H  s         
 
 Vector   31  Occ=0.000000D+00  E= 1.999436D-01
              MO Center=  3.5D-01, -3.6D-01,  5.6D-01, r^2= 5.4D+00
   Bfn.  Coefficient  Atom+Function         Bfn.  Coefficient  Atom+Function  
  ----- ------------  ---------------      ----- ------------  ---------------
    68      1.196828  13 H  s                24     -0.896523   3 C  s         
    25      0.791329   3 C  px               66     -0.781601  12 H  s         
    17      0.769337   2 C  py               15      0.717384   2 C  s         
    26      0.646372   3 C  py               74      0.640558  16 H  s         
    56     -0.616823   7 H  s                 9      0.546971   1 C  pz        
 
 Vector   32  Occ=0.000000D+00  E= 2.078525D-01
              MO Center=  4.6D-01,  4.7D-01, -4.5D-01, r^2= 7.6D+00
   Bfn.  Coefficient  Atom+Function         Bfn.  Coefficient  Atom+Function  
  ----- ------------  ---------------      ----- ------------  ---------------
    33      1.654583   4 C  s                74      1.344122  16 H  s         
    42     -1.300208   5 C  s                 6     -1.076103   1 C  s         
    70     -0.752167  14 H  s                15     -0.703318   2 C  s         
    72     -0.680990  15 H  s                66     -0.619874  12 H  s         
    26     -0.602468   3 C  py               56      0.591759   7 H  s         
 
 Vector   33  Occ=0.000000D+00  E= 2.203271D-01
              MO Center=  6.3D-01, -1.0D+00, -1.5D-01, r^2= 6.4D+00
   Bfn.  Coefficient  Atom+Function         Bfn.  Coefficient  Atom+Function  
  ----- ------------  ---------------      ----- ------------  ---------------
    15      1.978518   2 C  s                66      1.306965  12 H  s         
     6     -1.264350   1 C  s                58      0.929705   8 H  s         
    24     -0.838559   3 C  s                25     -0.817899   3 C  px        
    62     -0.717269  10 H  s                36     -0.667374   4 C  pz        
    64     -0.614677  11 H  s                72     -0.575100  15 H  s         
 
 Vector   34  Occ=0.000000D+00  E= 2.323281D-01
              MO Center= -6.4D-02, -1.3D-01, -5.4D-01, r^2= 5.9D+00
   Bfn.  Coefficient  Atom+Function         Bfn.  Coefficient  Atom+Function  
  ----- ------------  ---------------      ----- ------------  ---------------
    70      1.203347  14 H  s                 6      1.185153   1 C  s         
    42     -1.156776   5 C  s                34      1.091215   4 C  px        
    72     -0.979525  15 H  s                56     -0.954251   7 H  s         
    15     -0.882469   2 C  s                74      0.802520  16 H  s         
    62      0.628904  10 H  s                 8      0.517837   1 C  py        
 
 Vector   35  Occ=0.000000D+00  E= 2.618584D-01
              MO Center= -1.4D-01, -1.9D+00,  3.4D-01, r^2= 6.0D+00
   Bfn.  Coefficient  Atom+Function         Bfn.  Coefficient  Atom+Function  
  ----- ------------  ---------------      ----- ------------  ---------------
    60      1.447805   9 H  s                64     -1.376093  11 H  s         
    33      0.966777   4 C  s                 8      0.958595   1 C  py        
    70     -0.899057  14 H  s                18      0.772047   2 C  pz        
    24     -0.749722   3 C  s                68      0.653550  13 H  s         
    16      0.556336   2 C  px               36      0.505674   4 C  pz        
 
 Vector   36  Occ=0.000000D+00  E= 2.778641D-01
              MO Center= -2.3D-02, -1.4D+00, -3.1D-01, r^2= 5.3D+00
   Bfn.  Coefficient  Atom+Function         Bfn.  Coefficient  Atom+Function  
  ----- ------------  ---------------      ----- ------------  ---------------
    16      1.361142   2 C  px               62     -1.336480  10 H  s         
     7      1.129318   1 C  px               58      0.992423   8 H  s         
     6      0.942904   1 C  s                18     -0.873248   2 C  pz        
    15     -0.846288   2 C  s                 9      0.818759   1 C  pz        
    36      0.619042   4 C  pz               51      0.575452   6 O  s         
 
 Vector   37  Occ=0.000000D+00  E= 2.915820D-01
              MO Center=  8.7D-02, -4.3D-01, -7.6D-02, r^2= 5.3D+00
   Bfn.  Coefficient  Atom+Function         Bfn.  Coefficient  Atom+Function  
  ----- ------------  ---------------      ----- ------------  ---------------
    24      1.783465   3 C  s                15     -1.479509   2 C  s         
    36     -1.349132   4 C  pz                7      1.221657   1 C  px        
    16      1.146234   2 C  px               25     -0.999200   3 C  px        
    35      0.947041   4 C  py                6      0.881893   1 C  s         
    27     -0.850704   3 C  pz               45      0.764526   5 C  pz        
 
 Vector   38  Occ=0.000000D+00  E= 3.152732D-01
              MO Center=  3.2D-01, -7.3D-03,  5.0D-02, r^2= 5.7D+00
   Bfn.  Coefficient  Atom+Function         Bfn.  Coefficient  Atom+Function  
  ----- ------------  ---------------      ----- ------------  ---------------
    24      1.987691   3 C  s                33     -1.668614   4 C  s         
    27     -1.597132   3 C  pz               17     -1.382306   2 C  py        
    68      1.013197  13 H  s                15     -1.003704   2 C  s         
    51      0.970127   6 O  s                34     -0.954350   4 C  px        
    44     -0.856260   5 C  py               43      0.774158   5 C  px        
 
 Vector   39  Occ=0.000000D+00  E= 3.372375D-01
              MO Center=  1.3D-01,  4.2D-01, -5.5D-02, r^2= 6.4D+00
   Bfn.  Coefficient  Atom+Function         Bfn.  Coefficient  Atom+Function  
  ----- ------------  ---------------      ----- ------------  ---------------
    51      1.413647   6 O  s                26      1.276305   3 C  py        
    44     -1.249395   5 C  py               17      1.179431   2 C  py        
    24     -0.959762   3 C  s                45     -0.954771   5 C  pz        
    56      0.951610   7 H  s                43      0.830469   5 C  px        
    35     -0.795286   4 C  py               15      0.753224   2 C  s         
 
 Vector   40  Occ=0.000000D+00  E= 3.588306D-01
              MO Center=  5.4D-02,  6.7D-01, -3.9D-01, r^2= 4.2D+00
   Bfn.  Coefficient  Atom+Function         Bfn.  Coefficient  Atom+Function  
  ----- ------------  ---------------      ----- ------------  ---------------
    42      2.537705   5 C  s                33     -2.244834   4 C  s         
    35     -1.982873   4 C  py               44     -1.680839   5 C  py        
    43     -1.099225   5 C  px               74      1.085484  16 H  s         
    36     -0.904808   4 C  pz               51     -0.864911   6 O  s         
    45      0.531299   5 C  pz               53      0.531562   6 O  py        
 
 Vector   41  Occ=0.000000D+00  E= 5.707349D-01
              MO Center=  1.3D-01, -2.3D-01, -5.7D-02, r^2= 5.9D+00
   Bfn.  Coefficient  Atom+Function         Bfn.  Coefficient  Atom+Function  
  ----- ------------  ---------------      ----- ------------  ---------------
    17     -0.577389   2 C  py               43      0.537062   5 C  px        
     7      0.525796   1 C  px               41     -0.467097   5 C  pz        
    16     -0.459325   2 C  px                3     -0.409701   1 C  px        
    22     -0.382899   3 C  py               39     -0.374906   5 C  px        
    45      0.369174   5 C  pz               27      0.321910   3 C  pz        
 
 Vector   42  Occ=0.000000D+00  E= 5.905888D-01
              MO Center=  1.0D-01, -3.0D-01, -2.0D-01, r^2= 5.2D+00
   Bfn.  Coefficient  Atom+Function         Bfn.  Coefficient  Atom+Function  
  ----- ------------  ---------------      ----- ------------  ---------------
    27      0.884269   3 C  pz               16     -0.659881   2 C  px        
    36     -0.519325   4 C  pz               42      0.464914   5 C  s         
     7      0.458653   1 C  px                6     -0.381177   1 C  s         
    41      0.358197   5 C  pz               25      0.355085   3 C  px        
    23     -0.341918   3 C  pz               32      0.342228   4 C  pz        
 
 Vector   43  Occ=0.000000D+00  E= 6.094796D-01
              MO Center= -1.0D-01, -1.1D+00,  1.1D-01, r^2= 4.3D+00
   Bfn.  Coefficient  Atom+Function         Bfn.  Coefficient  Atom+Function  
  ----- ------------  ---------------      ----- ------------  ---------------
    36      0.696796   4 C  pz                9      0.661396   1 C  pz        
     7      0.474861   1 C  px               24     -0.464645   3 C  s         
    16     -0.455247   2 C  px               42     -0.452986   5 C  s         
     3     -0.430734   1 C  px               27     -0.432558   3 C  pz        
    44      0.417157   5 C  py               15     -0.411527   2 C  s         
 
 Vector   44  Occ=0.000000D+00  E= 6.210905D-01
              MO Center=  1.1D-01, -3.9D-01, -1.3D-01, r^2= 4.7D+00
   Bfn.  Coefficient  Atom+Function         Bfn.  Coefficient  Atom+Function  
  ----- ------------  ---------------      ----- ------------  ---------------
    33      0.777113   4 C  s                 9     -0.675847   1 C  pz        
    31      0.556823   4 C  py               35     -0.501781   4 C  py        
    42     -0.471629   5 C  s                27      0.460238   3 C  pz        
    34     -0.453607   4 C  px               24     -0.431972   3 C  s         
    44      0.367034   5 C  py                7      0.310835   1 C  px        
 
 Vector   45  Occ=0.000000D+00  E= 6.405250D-01
              MO Center=  7.4D-02,  1.8D-02, -2.0D-01, r^2= 5.6D+00
   Bfn.  Coefficient  Atom+Function         Bfn.  Coefficient  Atom+Function  
  ----- ------------  ---------------      ----- ------------  ---------------
    43      0.739429   5 C  px               45      0.697044   5 C  pz        
    33      0.577988   4 C  s                36     -0.569754   4 C  pz        
    34     -0.565638   4 C  px                9      0.476948   1 C  pz        
    27      0.456923   3 C  pz               25      0.404420   3 C  px        
    13     -0.398831   2 C  py               41     -0.390455   5 C  pz        
 
 Vector   46  Occ=0.000000D+00  E= 6.667823D-01
              MO Center=  3.4D-01,  3.4D-01, -1.5D-01, r^2= 4.4D+00
   Bfn.  Coefficient  Atom+Function         Bfn.  Coefficient  Atom+Function  
  ----- ------------  ---------------      ----- ------------  ---------------
    44      1.121018   5 C  py               16     -0.773599   2 C  px        
    33      0.774040   4 C  s                34      0.761078   4 C  px        
    25      0.736584   3 C  px               17      0.540829   2 C  py        
    24     -0.514386   3 C  s                 6     -0.459559   1 C  s         
    74     -0.431943  16 H  s                27     -0.397072   3 C  pz        
 
 Vector   47  Occ=0.000000D+00  E= 7.222068D-01
              MO Center= -2.7D-02, -7.2D-01, -4.9D-03, r^2= 5.0D+00
   Bfn.  Coefficient  Atom+Function         Bfn.  Coefficient  Atom+Function  
  ----- ------------  ---------------      ----- ------------  ---------------
    26      1.094844   3 C  py               15      0.990247   2 C  s         
     8      0.883662   1 C  py               42      0.831700   5 C  s         
     9      0.771419   1 C  pz               35     -0.761883   4 C  py        
     7     -0.741376   1 C  px               22     -0.665464   3 C  py        
    45     -0.593478   5 C  pz               18     -0.498077   2 C  pz        
 
 Vector   48  Occ=0.000000D+00  E= 7.310814D-01
              MO Center=  2.6D-02, -2.8D-03, -1.4D-01, r^2= 5.8D+00
   Bfn.  Coefficient  Atom+Function         Bfn.  Coefficient  Atom+Function  
  ----- ------------  ---------------      ----- ------------  ---------------
     8      1.115080   1 C  py               44      1.086339   5 C  py        
    16      1.038325   2 C  px               25     -0.906646   3 C  px        
    43      0.757817   5 C  px               33      0.732640   4 C  s         
    74     -0.695080  16 H  s                24      0.628036   3 C  s         
     6      0.617594   1 C  s                17     -0.589422   2 C  py        
 
 Vector   49  Occ=0.000000D+00  E= 7.390587D-01
              MO Center=  5.7D-02, -1.2D+00,  4.3D-02, r^2= 4.1D+00
   Bfn.  Coefficient  Atom+Function         Bfn.  Coefficient  Atom+Function  
  ----- ------------  ---------------      ----- ------------  ---------------
     9      1.028502   1 C  pz               16      0.969954   2 C  px        
    24      0.933939   3 C  s                36     -0.934068   4 C  pz        
    17     -0.875613   2 C  py               33     -0.713444   4 C  s         
    15     -0.646674   2 C  s                44     -0.639199   5 C  py        
     7      0.568827   1 C  px                6      0.558897   1 C  s         
 
 Vector   50  Occ=0.000000D+00  E= 7.546744D-01
              MO Center=  2.7D-01, -1.0D+00, -2.8D-02, r^2= 4.0D+00
   Bfn.  Coefficient  Atom+Function         Bfn.  Coefficient  Atom+Function  
  ----- ------------  ---------------      ----- ------------  ---------------
    17      1.524166   2 C  py                7      0.879898   1 C  px        
    26      0.838261   3 C  py               33     -0.807992   4 C  s         
    13     -0.717211   2 C  py               16      0.667049   2 C  px        
    36     -0.654389   4 C  pz               27     -0.598830   3 C  pz        
    44     -0.502571   5 C  py               34     -0.473103   4 C  px        
 
 Vector   51  Occ=0.000000D+00  E= 7.672869D-01
              MO Center= -1.2D-02,  1.8D+00, -4.5D-02, r^2= 2.9D+00
   Bfn.  Coefficient  Atom+Function         Bfn.  Coefficient  Atom+Function  
  ----- ------------  ---------------      ----- ------------  ---------------
    44      1.287717   5 C  py               42     -0.883444   5 C  s         
    35      0.856509   4 C  py               40     -0.781720   5 C  py        
    33      0.652579   4 C  s                41     -0.635829   5 C  pz        
     8     -0.478020   1 C  py               39      0.470390   5 C  px        
    54     -0.415690   6 O  pz               38     -0.411663   5 C  s         
 
 Vector   52  Occ=0.000000D+00  E= 7.742927D-01
              MO Center=  3.1D-01, -3.3D-01,  7.2D-02, r^2= 4.5D+00
   Bfn.  Coefficient  Atom+Function         Bfn.  Coefficient  Atom+Function  
  ----- ------------  ---------------      ----- ------------  ---------------
    27      1.511021   3 C  pz               16      1.043695   2 C  px        
    24     -1.032621   3 C  s                36      1.016853   4 C  pz        
    33      0.847037   4 C  s                34      0.832662   4 C  px        
    35     -0.789699   4 C  py               25      0.705902   3 C  px        
     7      0.636879   1 C  px                9      0.623175   1 C  pz        
 
 Vector   53  Occ=0.000000D+00  E= 8.682465D-01
              MO Center= -1.0D-01,  5.3D-01, -3.6D-01, r^2= 4.2D+00
   Bfn.  Coefficient  Atom+Function         Bfn.  Coefficient  Atom+Function  
  ----- ------------  ---------------      ----- ------------  ---------------
    43     -1.645718   5 C  px               34      1.555182   4 C  px        
    74      1.419440  16 H  s                44     -1.362501   5 C  py        
    36     -1.246060   4 C  pz               45      1.211940   5 C  pz        
    72     -1.027417  15 H  s                33     -0.889820   4 C  s         
    17     -0.871665   2 C  py               70      0.868210  14 H  s         
 
 Vector   54  Occ=0.000000D+00  E= 8.913212D-01
              MO Center=  3.6D-01, -8.7D-01,  2.2D-02, r^2= 5.1D+00
   Bfn.  Coefficient  Atom+Function         Bfn.  Coefficient  Atom+Function  
  ----- ------------  ---------------      ----- ------------  ---------------
    18      2.403666   2 C  pz               25      1.261579   3 C  px        
     9     -1.115815   1 C  pz               62      1.113405  10 H  s         
    27     -1.083371   3 C  pz               26      1.067901   3 C  py        
    64     -1.067697  11 H  s                34     -0.931238   4 C  px        
    66     -0.910144  12 H  s                14     -0.790702   2 C  pz        
 
 Vector   55  Occ=0.000000D+00  E= 9.048510D-01
              MO Center=  6.9D-02, -1.1D+00, -1.3D-01, r^2= 4.6D+00
   Bfn.  Coefficient  Atom+Function         Bfn.  Coefficient  Atom+Function  
  ----- ------------  ---------------      ----- ------------  ---------------
    42      1.866798   5 C  s                35     -1.514501   4 C  py        
    18      0.974970   2 C  pz                6      0.928162   1 C  s         
    44     -0.764383   5 C  py               64     -0.696671  11 H  s         
    25     -0.673174   3 C  px                8     -0.631141   1 C  py        
    66      0.597732  12 H  s                62      0.591305  10 H  s         
 
 Vector   56  Occ=0.000000D+00  E= 9.113463D-01
              MO Center=  2.9D-01, -3.9D-01, -2.7D-01, r^2= 4.5D+00
   Bfn.  Coefficient  Atom+Function         Bfn.  Coefficient  Atom+Function  
  ----- ------------  ---------------      ----- ------------  ---------------
    25      1.376760   3 C  px               26     -1.274819   3 C  py        
     8      1.218848   1 C  py               72      1.201954  15 H  s         
    36      1.155942   4 C  pz               34     -1.062228   4 C  px        
    24      1.014773   3 C  s                66     -0.863346  12 H  s         
    17     -0.813994   2 C  py               16     -0.807179   2 C  px        
 
 Vector   57  Occ=0.000000D+00  E= 9.621933D-01
              MO Center= -3.6D-01, -1.1D+00, -4.9D-01, r^2= 5.5D+00
   Bfn.  Coefficient  Atom+Function         Bfn.  Coefficient  Atom+Function  
  ----- ------------  ---------------      ----- ------------  ---------------
    58      1.156268   8 H  s                 9      0.855062   1 C  pz        
    74     -0.789444  16 H  s                70      0.619493  14 H  s         
     5     -0.576397   1 C  pz               36      0.575012   4 C  pz        
    44      0.566584   5 C  py               72      0.568590  15 H  s         
    57     -0.562128   8 H  s                33     -0.530321   4 C  s         
 
 Vector   58  Occ=0.000000D+00  E= 9.649897D-01
              MO Center=  2.5D-01,  3.9D-01, -2.8D-01, r^2= 6.3D+00
   Bfn.  Coefficient  Atom+Function         Bfn.  Coefficient  Atom+Function  
  ----- ------------  ---------------      ----- ------------  ---------------
    74      1.564990  16 H  s                42     -1.339347   5 C  s         
    43     -0.901220   5 C  px               44     -0.785924   5 C  py        
    68     -0.717804  13 H  s                38      0.681283   5 C  s         
    45      0.638881   5 C  pz               62      0.640654  10 H  s         
     8      0.563862   1 C  py               72      0.546147  15 H  s         
 
 Vector   59  Occ=0.000000D+00  E= 9.852375D-01
              MO Center=  7.2D-01, -4.9D-01,  1.7D-01, r^2= 6.4D+00
   Bfn.  Coefficient  Atom+Function         Bfn.  Coefficient  Atom+Function  
  ----- ------------  ---------------      ----- ------------  ---------------
    66      1.100545  12 H  s                64      0.908212  11 H  s         
    15     -0.870323   2 C  s                25     -0.830066   3 C  px        
    16     -0.611653   2 C  px               74     -0.591443  16 H  s         
    60      0.582721   9 H  s                73      0.583544  16 H  s         
    65     -0.572090  12 H  s                58     -0.546203   8 H  s         
 
 Vector   60  Occ=0.000000D+00  E= 1.013315D+00
              MO Center= -7.5D-01, -5.6D-01,  2.7D-02, r^2= 8.4D+00
   Bfn.  Coefficient  Atom+Function         Bfn.  Coefficient  Atom+Function  
  ----- ------------  ---------------      ----- ------------  ---------------
     6      1.465208   1 C  s                42      1.400514   5 C  s         
    60     -1.008930   9 H  s                 2     -0.863879   1 C  s         
    58     -0.717001   8 H  s                17     -0.607018   2 C  py        
    26     -0.579119   3 C  py               57      0.524890   8 H  s         
    59      0.526997   9 H  s                52     -0.479584   6 O  px        
 
 Vector   61  Occ=0.000000D+00  E= 1.016670D+00
              MO Center= -3.3D-01, -1.7D-01,  2.2D-01, r^2= 8.0D+00
   Bfn.  Coefficient  Atom+Function         Bfn.  Coefficient  Atom+Function  
  ----- ------------  ---------------      ----- ------------  ---------------
     6      1.687523   1 C  s                24      1.477146   3 C  s         
    15     -1.329210   2 C  s                 2     -0.883299   1 C  s         
    60     -0.878841   9 H  s                33      0.667883   4 C  s         
    20     -0.645933   3 C  s                64      0.578676  11 H  s         
    54     -0.567757   6 O  pz               58     -0.561544   8 H  s         
 
 Vector   62  Occ=0.000000D+00  E= 1.021970D+00
              MO Center= -6.1D-01, -5.8D-01,  1.0D-01, r^2= 4.5D+00
   Bfn.  Coefficient  Atom+Function         Bfn.  Coefficient  Atom+Function  
  ----- ------------  ---------------      ----- ------------  ---------------
    33      1.866219   4 C  s                24     -1.276455   3 C  s         
    56     -1.164597   7 H  s                68      0.957139  13 H  s         
    29     -0.773959   4 C  s                55      0.726934   7 H  s         
    70     -0.709041  14 H  s                72     -0.684928  15 H  s         
    58      0.672764   8 H  s                20      0.573504   3 C  s         
 
 Vector   63  Occ=0.000000D+00  E= 1.034348D+00
              MO Center=  1.4D-01, -8.1D-01,  3.9D-01, r^2= 6.2D+00
   Bfn.  Coefficient  Atom+Function         Bfn.  Coefficient  Atom+Function  
  ----- ------------  ---------------      ----- ------------  ---------------
    42      1.066005   5 C  s                24      0.936316   3 C  s         
    68     -0.858455  13 H  s                33      0.808160   4 C  s         
    38     -0.729098   5 C  s                20     -0.704216   3 C  s         
    60      0.690061   9 H  s                26     -0.658813   3 C  py        
    59     -0.631855   9 H  s                11     -0.619349   2 C  s         
 
 Vector   64  Occ=0.000000D+00  E= 1.038164D+00
              MO Center=  4.9D-01,  4.8D-03,  4.2D-01, r^2= 6.9D+00
   Bfn.  Coefficient  Atom+Function         Bfn.  Coefficient  Atom+Function  
  ----- ------------  ---------------      ----- ------------  ---------------
    15      1.545407   2 C  s                24     -1.031920   3 C  s         
    64     -0.886687  11 H  s                 6     -0.740902   1 C  s         
    33      0.733203   4 C  s                66      0.726459  12 H  s         
    17     -0.690789   2 C  py               11     -0.686921   2 C  s         
    65     -0.654103  12 H  s                62     -0.619719  10 H  s         
 
 Vector   65  Occ=0.000000D+00  E= 1.081020D+00
              MO Center=  4.9D-02, -6.4D-01, -1.7D-01, r^2= 6.6D+00
   Bfn.  Coefficient  Atom+Function         Bfn.  Coefficient  Atom+Function  
  ----- ------------  ---------------      ----- ------------  ---------------
    33      2.229910   4 C  s                 6     -1.343683   1 C  s         
    15     -1.143777   2 C  s                62      0.786985  10 H  s         
    26     -0.764376   3 C  py               35      0.721021   4 C  py        
    18     -0.715288   2 C  pz               43      0.717680   5 C  px        
    61     -0.652450  10 H  s                72     -0.611760  15 H  s         
 
 Vector   66  Occ=0.000000D+00  E= 1.093804D+00
              MO Center= -3.2D-01,  1.4D+00,  3.4D-01, r^2= 5.6D+00
   Bfn.  Coefficient  Atom+Function         Bfn.  Coefficient  Atom+Function  
  ----- ------------  ---------------      ----- ------------  ---------------
    33      0.902815   4 C  s                34      0.828583   4 C  px        
    54      0.776010   6 O  pz               27      0.712563   3 C  pz        
    52      0.688032   6 O  px               68     -0.611652  13 H  s         
    50     -0.581110   6 O  pz                6     -0.536920   1 C  s         
    48     -0.515171   6 O  px               70      0.515172  14 H  s         
 
 Vector   67  Occ=0.000000D+00  E= 1.156396D+00
              MO Center= -7.5D-01, -7.2D-01, -8.0D-02, r^2= 5.0D+00
   Bfn.  Coefficient  Atom+Function         Bfn.  Coefficient  Atom+Function  
  ----- ------------  ---------------      ----- ------------  ---------------
     6      2.159207   1 C  s                70      1.804672  14 H  s         
    24     -1.428217   3 C  s                56     -1.152021   7 H  s         
    17      0.794609   2 C  py                8     -0.788109   1 C  py        
     2     -0.732116   1 C  s                43      0.710037   5 C  px        
    69     -0.712287  14 H  s                34      0.665172   4 C  px        
 
 Vector   68  Occ=0.000000D+00  E= 1.204265D+00
              MO Center= -3.5D-02,  1.4D+00,  7.5D-02, r^2= 4.6D+00
   Bfn.  Coefficient  Atom+Function         Bfn.  Coefficient  Atom+Function  
  ----- ------------  ---------------      ----- ------------  ---------------
    42      2.571851   5 C  s                35     -1.549336   4 C  py        
    24     -1.483494   3 C  s                33     -1.412323   4 C  s         
    53     -0.873981   6 O  py               20      0.723244   3 C  s         
    29      0.700310   4 C  s                18      0.673478   2 C  pz        
     6     -0.592258   1 C  s                38     -0.559235   5 C  s         
 
 Vector   69  Occ=0.000000D+00  E= 1.243514D+00
              MO Center= -5.8D-02,  1.4D+00, -2.5D-03, r^2= 4.6D+00
   Bfn.  Coefficient  Atom+Function         Bfn.  Coefficient  Atom+Function  
  ----- ------------  ---------------      ----- ------------  ---------------
    42     -4.024957   5 C  s                33      3.771400   4 C  s         
    44      2.815042   5 C  py               35      2.050842   4 C  py        
    38      1.262162   5 C  s                 6      1.238498   1 C  s         
    53     -1.097112   6 O  py               15      1.071790   2 C  s         
    26      1.008616   3 C  py               24      0.673408   3 C  s         
 
 Vector   70  Occ=0.000000D+00  E= 1.335649D+00
              MO Center=  2.4D-01,  3.0D-01, -1.3D-01, r^2= 4.5D+00
   Bfn.  Coefficient  Atom+Function         Bfn.  Coefficient  Atom+Function  
  ----- ------------  ---------------      ----- ------------  ---------------
    34      2.495525   4 C  px               25     -2.045658   3 C  px        
    36     -1.559859   4 C  pz               43     -1.485260   5 C  px        
    27      1.283182   3 C  pz               45      1.120165   5 C  pz        
    33     -0.891091   4 C  s                16      0.841906   2 C  px        
    70      0.823642  14 H  s                18     -0.789891   2 C  pz        
 
 Vector   71  Occ=0.000000D+00  E= 1.410681D+00
              MO Center= -3.2D-01, -8.6D-01, -2.2D-01, r^2= 3.4D+00
   Bfn.  Coefficient  Atom+Function         Bfn.  Coefficient  Atom+Function  
  ----- ------------  ---------------      ----- ------------  ---------------
     6      3.463613   1 C  s                33     -2.287508   4 C  s         
    24     -1.879319   3 C  s                 2     -1.512055   1 C  s         
    29      1.131320   4 C  s                20      1.061993   3 C  s         
    17      0.973438   2 C  py               35      0.810299   4 C  py        
     7      0.771444   1 C  px                8      0.720818   1 C  py        
 
 Vector   72  Occ=0.000000D+00  E= 1.552288D+00
              MO Center=  1.0D-01,  2.3D-01, -1.3D-01, r^2= 4.2D+00
   Bfn.  Coefficient  Atom+Function         Bfn.  Coefficient  Atom+Function  
  ----- ------------  ---------------      ----- ------------  ---------------
    33      5.699382   4 C  s                24     -4.792588   3 C  s         
    42     -1.948322   5 C  s                51      1.858830   6 O  s         
     6      1.691014   1 C  s                29     -1.638449   4 C  s         
    20      1.315455   3 C  s                18      1.039444   2 C  pz        
    36      0.950286   4 C  pz               35     -0.920956   4 C  py        
 
 Vector   73  Occ=0.000000D+00  E= 1.674972D+00
              MO Center=  3.2D-01, -1.5D+00,  1.3D-01, r^2= 3.5D+00
   Bfn.  Coefficient  Atom+Function         Bfn.  Coefficient  Atom+Function  
  ----- ------------  ---------------      ----- ------------  ---------------
    15      8.077630   2 C  s                24     -5.019547   3 C  s         
     6     -4.193825   1 C  s                11     -2.267417   2 C  s         
    33      1.541197   4 C  s                42     -1.425379   5 C  s         
    26      1.367723   3 C  py               17      1.280647   2 C  py        
     7     -1.238906   1 C  px               20      1.036629   3 C  s         
 
 Vector   74  Occ=0.000000D+00  E= 1.883716D+00
              MO Center= -6.2D-02,  1.7D+00,  1.4D-01, r^2= 3.1D+00
   Bfn.  Coefficient  Atom+Function         Bfn.  Coefficient  Atom+Function  
  ----- ------------  ---------------      ----- ------------  ---------------
    51      4.242555   6 O  s                24      3.450852   3 C  s         
    33     -2.930669   4 C  s                42     -1.891676   5 C  s         
    47     -1.725094   6 O  s                43      1.635297   5 C  px        
    45     -1.486582   5 C  pz               34     -1.239554   4 C  px        
    20     -1.009647   3 C  s                54     -0.980192   6 O  pz        
 

 center of mass
 --------------
 x =  -0.01707387 y =   0.18658428 z =   0.02757007

 moments of inertia (a.u.)
 ------------------
        1040.339254774638          -0.000000000000          -0.000000000000
          -0.000000000000         215.041736974882           0.000000000000
          -0.000000000000           0.000000000000        1107.717703293931
 
     Multipole analysis of the density
     ---------------------------------
 
     L   x y z        total         alpha         beta         nuclear
     -   - - -        -----         -----         ----         -------
     0   0 0 0     -0.000000    -24.000000    -24.000000     48.000000
 
     1   1 0 0      0.609992      0.304996      0.304996      0.000000
     1   0 1 0     -0.822019     -0.411010     -0.411010     -0.000000
     1   0 0 1     -0.578795     -0.289397     -0.289397      0.000000
 
     2   2 0 0    -28.913410    -61.438002    -61.438002     93.962594
     2   1 1 0      2.731869     -3.658205     -3.658205     10.048279
     2   1 0 1      0.409367     -0.203803     -0.203803      0.816972
     2   0 2 0    -32.934312   -287.843248   -287.843248    542.752184
     2   0 1 1     -2.844512      0.738880      0.738880     -4.322272
     2   0 0 2    -28.414643    -40.786651    -40.786651     53.158658
 

 Task  times  cpu:       42.4s     wall:        7.4s
 
 
                                NWChem Input Module
                                -------------------
 
 
 Summary of allocated global arrays
-----------------------------------
  No active global arrays



                         GA Statistics for process    0
                         ------------------------------

       create   destroy   get      put      acc     scatter   gather  read&inc
calls:  154      154     4.24e+04 1681     3.17e+04    0        0      946     
number of processes/call 4.13e+00 2.62e+01 3.33e+00 0.00e+00 0.00e+00
bytes total:             1.74e+07 2.60e+06 9.61e+06 0.00e+00 0.00e+00 7.57e+03
bytes remote:            9.25e+06 7.47e+05 5.43e+06 0.00e+00 0.00e+00 0.00e+00
Max memory consumed for GA by this process: 643512 bytes
 
MA_summarize_allocated_blocks: starting scan ...
heap block 'gridpts', handle 90, address 0x132dac00:
	type of elements:		double precision
	number of elements:		6291456
	address of client space:	0x132dac80
	index for client space:		19413917
	total number of bytes:		50331784
MA_summarize_allocated_blocks: scan completed: 1 heap block, 0 stack blocks
MA usage statistics:

	allocation statistics:
					      heap	     stack
					      ----	     -----
	current number of blocks	         1	         0
	maximum number of blocks	        21	        53
	current total bytes		  50331784	         0
	maximum total bytes		  53360856	  22515784
	maximum total K-bytes		     53361	     22516
	maximum total M-bytes		        54	        23
 
 
                                     CITATION
                                     --------
                Please cite the following reference when publishing
                           results obtained with NWChem:
 
                 M. Valiev, E.J. Bylaska, N. Govind, K. Kowalski,
              T.P. Straatsma, H.J.J. van Dam, D. Wang, J. Nieplocha,
                        E. Apra, T.L. Windus, W.A. de Jong
                 "NWChem: a comprehensive and scalable open-source
                  solution for large scale molecular simulations"
                      Comput. Phys. Commun. 181, 1477 (2010)
                           doi:10.1016/j.cpc.2010.04.018
 
                                      AUTHORS
                                      -------
          E. Apra, E. J. Bylaska, W. A. de Jong, N. Govind, K. Kowalski,
       T. P. Straatsma, M. Valiev, H. J. J. van Dam, D. Wang, T. L. Windus,
        J. Hammond, J. Autschbach, K. Bhaskaran-Nair, J. Brabec, K. Lopata,
    S. A. Fischer, S. Krishnamoorthy, M. Jacquelin, W. Ma, M. Klemm, O. Villa,
      Y. Chen, V. Anisimov, F. Aquino, S. Hirata, M. T. Hackler, V. Konjkov,
            D. Mejia-Rodriguez, T. Risthaus, M. Malagoli, A. Marenich,
   A. Otero-de-la-Roza, J. Mullin, P. Nichols, R. Peverati, J. Pittner, Y. Zhao,
        P.-D. Fan, A. Fonari, M. J. Williamson, R. J. Harrison, J. R. Rehr,
      M. Dupuis, D. Silverstein, D. M. A. Smith, J. Nieplocha, V. Tipparaju,
    M. Krishnan, B. E. Van Kuiken, A. Vazquez-Mayagoitia, L. Jensen, M. Swart,
      Q. Wu, T. Van Voorhis, A. A. Auer, M. Nooijen, L. D. Crosby, E. Brown,
      G. Cisneros, G. I. Fann, H. Fruchtl, J. Garza, K. Hirao, R. A. Kendall,
      J. A. Nichols, K. Tsemekhman, K. Wolinski, J. Anchell, D. E. Bernholdt,
      P. Borowski, T. Clark, D. Clerc, H. Dachsel, M. J. O. Deegan, K. Dyall,
    D. Elwood, E. Glendening, M. Gutowski, A. C. Hess, J. Jaffe, B. G. Johnson,
     J. Ju, R. Kobayashi, R. Kutteh, Z. Lin, R. Littlefield, X. Long, B. Meng,
      T. Nakajima, S. Niu, L. Pollack, M. Rosing, K. Glaesemann, G. Sandrone,
      M. Stave, H. Taylor, G. Thomas, J. H. van Lenthe, A. T. Wong, Z. Zhang.

 Total times  cpu:       43.4s     wall:        7.6s
