 argument  1 = Frag-00000006.nw
  NWChem w/ OpenMP: maximum threads =    7
                                         
                                         
 
 
              Northwest Computational Chemistry Package (NWChem) 6.8
              ------------------------------------------------------
 
 
                    Environmental Molecular Sciences Laboratory
                       Pacific Northwest National Laboratory
                                Richland, WA 99352
 
                              Copyright (c) 1994-2018
                       Pacific Northwest National Laboratory
                            Battelle Memorial Institute
 
             NWChem is an open-source computational chemistry package
                        distributed under the terms of the
                      Educational Community License (ECL) 2.0
             A copy of the license is included with this distribution
                              in the LICENSE.TXT file
 
                                  ACKNOWLEDGMENT
                                  --------------

            This software and its documentation were developed at the
            EMSL at Pacific Northwest National Laboratory, a multiprogram
            national laboratory, operated for the U.S. Department of Energy
            by Battelle under Contract Number DE-AC05-76RL01830. Support
            for this work was provided by the Department of Energy Office
            of Biological and Environmental Research, Office of Basic
            Energy Sciences, and the Office of Advanced Scientific Computing.


           Job information
           ---------------

    hostname        = i10r3n16
    program         = /public/software/apps/nwchem-DCU/6.8.1/hpcx-2.4.1-intel2017/bin/LINUX64/nwchem
    date            = Sat Mar 19 20:03:34 2022

    compiled        = Wed_Feb_19_20:38:21_2020
    source          = /public/software/apps/nwchem-DCU/6.8.1/hpcx-2.4.1-intel2017
    nwchem branch   = Development
    nwchem revision = nwchem_on_git-947-g0b42727
    ga revision     = 5.7.0
    use scalapack   = F
    input           = Frag-00000006.nw
    prefix          = LoadBalanceApplication.
    data base       = ./LoadBalanceApplication.db
    status          = startup
    nproc           =        4
    time left       =     -1s



           Memory information
           ------------------

    heap     =   13107200 doubles =    100.0 Mbytes
    stack    =   13107197 doubles =    100.0 Mbytes
    global   =   26214400 doubles =    200.0 Mbytes (distinct from heap & stack)
    total    =   52428797 doubles =    400.0 Mbytes
    verify   = yes
    hardfail = no 


           Directory information
           ---------------------
 
  0 permanent = .
  0 scratch   = .
 
 
 
 
                                NWChem Input Module
                                -------------------
 
 
                                   Frag-00000006
                                   -------------

 Scaling coordinates for geometry "geometry" by  1.889725989
 (inverse scale =  0.529177249)

 C1  symmetry detected

          ------
          auto-z
          ------
  no constraints, skipping   0.000000000000000E+000
  no constraints, skipping   0.000000000000000E+000
 
 
                             Geometry "geometry" -> ""
                             -------------------------
 
 Output coordinates in angstroms (scale by  1.889725989 to convert to a.u.)
 
  No.       Tag          Charge          X              Y              Z
 ---- ---------------- ---------- -------------- -------------- --------------
    1 C                    6.0000    -0.77746121    -0.04893396    -0.57081118
    2 C                    6.0000     0.20112109    -0.57931118     0.40050066
    3 C                    6.0000     1.54995560     0.08019170     0.12365520
    4 C                    6.0000     1.36679873     1.51570960     0.58972700
    5 C                    6.0000     0.37628637     2.17928056    -0.30038077
    6 C                    6.0000    -0.45969199     1.29804735    -1.13044416
    7 O                    8.0000    -2.04939177    -0.03769439     0.04509086
    8 C                    6.0000    -0.43996009     3.14556135     0.56868375
    9 C                    6.0000     0.89171603    -2.56449546    -0.96576139
   10 C                    6.0000     0.40261178    -2.06342685     0.35394778
   11 C                    6.0000    -0.82531927    -2.81436623     0.83407315
   12 H                    1.0000    -0.88187476    -0.77745073    -1.41460862
   13 H                    1.0000    -0.14590233    -0.32871111     1.43207003
   14 H                    1.0000     1.63566457     0.12622461    -0.98471024
   15 H                    1.0000     2.38087807    -0.43005550     0.61546171
   16 H                    1.0000     2.35131265     2.00539567     0.61964164
   17 H                    1.0000     1.01203778     1.44436462     1.65494931
   18 H                    1.0000     0.95983563     2.86050681    -0.98972179
   19 H                    1.0000    -1.44964349     1.81866384    -1.30278825
   20 H                    1.0000    -0.03290726     1.17818956    -2.15298067
   21 H                    1.0000    -2.27658427     0.87759568     0.27348668
   22 H                    1.0000    -0.64649887     2.72587214     1.55463136
   23 H                    1.0000    -1.34798388     3.48784154     0.03858275
   24 H                    1.0000     0.17899251     4.07050425     0.74364464
   25 H                    1.0000     1.74381238    -3.29737683    -0.85059753
   26 H                    1.0000     0.07574327    -3.17958702    -1.43565482
   27 H                    1.0000     1.25787392    -1.78231993    -1.64369047
   28 H                    1.0000     1.20698667    -2.29856963     1.10909207
   29 H                    1.0000    -0.77766460    -3.85774589     0.43362727
   30 H                    1.0000    -0.81756900    -2.93731764     1.94875646
   31 H                    1.0000    -1.74771702    -2.29401057     0.57094128
 
      Atomic Mass 
      ----------- 
 
      C                 12.000000
      O                 15.994910
      H                  1.007825
 

 Effective nuclear repulsion energy (a.u.)     711.9463727227

            Nuclear Dipole moment (a.u.) 
            ----------------------------
        X                 Y               Z
 ---------------- ---------------- ----------------
     0.0000000000    -0.0000000000    -0.0000000000
 


                                Z-matrix (autoz)
                                -------- 

 Units are Angstrom for bonds and degrees for angles
 
      Type          Name      I     J     K     L     M      Value
      ----------- --------  ----- ----- ----- ----- ----- ----------
    1 Stretch                  1     2                       1.47728
    2 Stretch                  1     6                       1.49282
    3 Stretch                  1     7                       1.41325
    4 Stretch                  1    12                       1.11966
    5 Stretch                  2     3                       1.52674
    6 Stretch                  2    10                       1.49845
    7 Stretch                  2    13                       1.11685
    8 Stretch                  3     4                       1.52036
    9 Stretch                  3    14                       1.11263
   10 Stretch                  3    15                       1.09209
   11 Stretch                  4     5                       1.48786
   12 Stretch                  4    16                       1.09998
   13 Stretch                  4    17                       1.12501
   14 Stretch                  5     6                       1.47120
   15 Stretch                  5     8                       1.53468
   16 Stretch                  5    18                       1.13128
   17 Stretch                  6    19                       1.13170
   18 Stretch                  6    20                       1.11449
   19 Stretch                  7    21                       0.97033
   20 Stretch                  8    22                       1.09128
   21 Stretch                  8    23                       1.10574
   22 Stretch                  8    24                       1.12660
   23 Stretch                  9    10                       1.49396
   24 Stretch                  9    25                       1.12980
   25 Stretch                  9    26                       1.12470
   26 Stretch                  9    27                       1.09793
   27 Stretch                 10    11                       1.51732
   28 Stretch                 10    28                       1.12808
   29 Stretch                 11    29                       1.11860
   30 Stretch                 11    30                       1.12147
   31 Stretch                 11    31                       1.09125
   32 Bend                     1     2     3               108.11462
   33 Bend                     1     2    10               115.10208
   34 Bend                     1     2    13               108.71794
   35 Bend                     1     6     5               116.73816
   36 Bend                     1     6    19               106.61710
   37 Bend                     1     6    20               109.17335
   38 Bend                     1     7    21               108.71186
   39 Bend                     2     1     6               115.43109
   40 Bend                     2     1     7               108.20964
   41 Bend                     2     1    12               108.88544
   42 Bend                     2     3     4               104.23169
   43 Bend                     2     3    14               105.45995
   44 Bend                     2     3    15               112.87433
   45 Bend                     2    10     9               113.80670
   46 Bend                     2    10    11               111.80980
   47 Bend                     2    10    28               106.35187
   48 Bend                     3     2    10               107.66216
   49 Bend                     3     2    13               110.18592
   50 Bend                     3     4     5               108.53646
   51 Bend                     3     4    16               108.71428
   52 Bend                     3     4    17               105.56752
   53 Bend                     4     3    14               105.99753
   54 Bend                     4     3    15               113.25086
   55 Bend                     4     5     6               116.65890
   56 Bend                     4     5     8               107.22421
   57 Bend                     4     5    18               106.83993
   58 Bend                     5     4    16               114.42941
   59 Bend                     5     4    17               112.63169
   60 Bend                     5     6    19               107.90408
   61 Bend                     5     6    20               111.37532
   62 Bend                     5     8    22               111.72445
   63 Bend                     5     8    23               111.11152
   64 Bend                     5     8    24               108.21994
   65 Bend                     6     1     7               110.35153
   66 Bend                     6     1    12               108.93075
   67 Bend                     6     5     8               113.22992
   68 Bend                     6     5    18               108.05966
   69 Bend                     7     1    12               104.45843
   70 Bend                     8     5    18               103.90256
   71 Bend                     9    10    11               112.23948
   72 Bend                     9    10    28               106.73676
   73 Bend                    10     2    13               107.02021
   74 Bend                    10     9    25               111.98956
   75 Bend                    10     9    26               108.35896
   76 Bend                    10     9    27               114.56241
   77 Bend                    10    11    29               108.29302
   78 Bend                    10    11    30               111.29577
   79 Bend                    10    11    31               111.82420
   80 Bend                    11    10    28               105.19306
   81 Bend                    14     3    15               114.16276
   82 Bend                    16     4    17               106.54216
   83 Bend                    19     6    20               104.16573
   84 Bend                    22     8    23               113.37581
   85 Bend                    22     8    24               106.22533
   86 Bend                    23     8    24               105.75184
   87 Bend                    25     9    26               103.59172
   88 Bend                    25     9    27               105.87512
   89 Bend                    26     9    27               111.93740
   90 Bend                    29    11    30               104.67083
   91 Bend                    29    11    31               113.23272
   92 Bend                    30    11    31               107.32488
   93 Torsion                  1     2     3     4          71.41174
   94 Torsion                  1     2     3    14         -40.00458
   95 Torsion                  1     2     3    15        -165.28850
   96 Torsion                  1     2    10     9          59.95865
   97 Torsion                  1     2    10    11         -68.51262
   98 Torsion                  1     2    10    28         177.18278
   99 Torsion                  1     6     5     4          30.61973
  100 Torsion                  1     6     5     8         -94.55380
  101 Torsion                  1     6     5    18         150.92854
  102 Torsion                  2     1     6     5         -25.90002
  103 Torsion                  2     1     6    19        -146.53607
  104 Torsion                  2     1     6    20         101.49129
  105 Torsion                  2     1     7    21         105.38809
  106 Torsion                  2     3     4     5         -66.58730
  107 Torsion                  2     3     4    16         168.37345
  108 Torsion                  2     3     4    17          54.39216
  109 Torsion                  2    10     9    25         134.02480
  110 Torsion                  2    10     9    26        -112.33199
  111 Torsion                  2    10     9    27          13.43331
  112 Torsion                  2    10    11    29         159.20240
  113 Torsion                  2    10    11    30         -86.26849
  114 Torsion                  2    10    11    31          33.75719
  115 Torsion                  3     2     1     6         -24.77822
  116 Torsion                  3     2     1     7        -148.96006
  117 Torsion                  3     2     1    12          98.06470
  118 Torsion                  3     2    10     9         -60.67201
  119 Torsion                  3     2    10    11         170.85672
  120 Torsion                  3     2    10    28          56.55212
  121 Torsion                  3     4     5     6          16.43521
  122 Torsion                  3     4     5     8         144.58383
  123 Torsion                  3     4     5    18        -104.52109
  124 Torsion                  4     3     2    10        -163.65655
  125 Torsion                  4     3     2    13         -47.27437
  126 Torsion                  4     5     6    19         150.57127
  127 Torsion                  4     5     6    20         -95.68609
  128 Torsion                  4     5     8    22         -38.37422
  129 Torsion                  4     5     8    23        -166.08398
  130 Torsion                  4     5     8    24          78.22900
  131 Torsion                  5     4     3    14          44.43912
  132 Torsion                  5     4     3    15         170.35812
  133 Torsion                  5     6     1     7          97.15478
  134 Torsion                  5     6     1    12        -148.71889
  135 Torsion                  6     1     2    10        -145.16102
  136 Torsion                  6     1     2    13          94.83745
  137 Torsion                  6     1     7    21         -21.78243
  138 Torsion                  6     5     4    16         138.03539
  139 Torsion                  6     5     4    17        -100.08182
  140 Torsion                  6     5     8    22          91.73530
  141 Torsion                  6     5     8    23         -35.97446
  142 Torsion                  6     5     8    24        -151.66148
  143 Torsion                  7     1     2    10          90.65714
  144 Torsion                  7     1     2    13         -29.34439
  145 Torsion                  7     1     6    19         -23.48127
  146 Torsion                  7     1     6    20        -135.45391
  147 Torsion                  8     5     4    16         -93.81598
  148 Torsion                  8     5     4    17          28.06680
  149 Torsion                  8     5     6    19          25.39774
  150 Torsion                  8     5     6    20         139.14038
  151 Torsion                  9    10     2    13        -179.10933
  152 Torsion                  9    10    11    29          29.90526
  153 Torsion                  9    10    11    30         144.43436
  154 Torsion                  9    10    11    31         -95.53995
  155 Torsion                 10     2     1    12         -22.31809
  156 Torsion                 10     2     3    14          84.92713
  157 Torsion                 10     2     3    15         -40.35678
  158 Torsion                 11    10     2    13          52.41940
  159 Torsion                 11    10     9    25         -97.72354
  160 Torsion                 11    10     9    26          15.91967
  161 Torsion                 11    10     9    27         141.68497
  162 Torsion                 12     1     2    13        -142.31963
  163 Torsion                 12     1     6    19          90.64506
  164 Torsion                 12     1     6    20         -21.32758
  165 Torsion                 12     1     7    21        -138.71782
  166 Torsion                 13     2     3    14        -158.69069
  167 Torsion                 13     2     3    15          76.02540
  168 Torsion                 13     2    10    28         -61.88520
  169 Torsion                 14     3     4    16         -80.60013
  170 Torsion                 14     3     4    17         165.41858
  171 Torsion                 15     3     4    16          45.31888
  172 Torsion                 15     3     4    17         -68.66241
  173 Torsion                 16     4     5    18          17.07910
  174 Torsion                 17     4     5    18         138.96189
  175 Torsion                 18     5     6    19         -89.11992
  176 Torsion                 18     5     6    20          24.62272
  177 Torsion                 18     5     8    22        -151.27831
  178 Torsion                 18     5     8    23          81.01193
  179 Torsion                 18     5     8    24         -34.67508
  180 Torsion                 25     9    10    28          17.02397
  181 Torsion                 26     9    10    28         130.66719
  182 Torsion                 27     9    10    28        -103.56752
  183 Torsion                 28    10    11    29         -85.78009
  184 Torsion                 28    10    11    30          28.74901
  185 Torsion                 28    10    11    31         148.77470
 
 
            XYZ format geometry
            -------------------
    31
 geometry
 C                    -0.77746121    -0.04893396    -0.57081118
 C                     0.20112109    -0.57931118     0.40050066
 C                     1.54995560     0.08019170     0.12365520
 C                     1.36679873     1.51570960     0.58972700
 C                     0.37628637     2.17928056    -0.30038077
 C                    -0.45969199     1.29804735    -1.13044416
 O                    -2.04939177    -0.03769439     0.04509086
 C                    -0.43996009     3.14556135     0.56868375
 C                     0.89171603    -2.56449546    -0.96576139
 C                     0.40261178    -2.06342685     0.35394778
 C                    -0.82531927    -2.81436623     0.83407315
 H                    -0.88187476    -0.77745073    -1.41460862
 H                    -0.14590233    -0.32871111     1.43207003
 H                     1.63566457     0.12622461    -0.98471024
 H                     2.38087807    -0.43005550     0.61546171
 H                     2.35131265     2.00539567     0.61964164
 H                     1.01203778     1.44436462     1.65494931
 H                     0.95983563     2.86050681    -0.98972179
 H                    -1.44964349     1.81866384    -1.30278825
 H                    -0.03290726     1.17818956    -2.15298067
 H                    -2.27658427     0.87759568     0.27348668
 H                    -0.64649887     2.72587214     1.55463136
 H                    -1.34798388     3.48784154     0.03858275
 H                     0.17899251     4.07050425     0.74364464
 H                     1.74381238    -3.29737683    -0.85059753
 H                     0.07574327    -3.17958702    -1.43565482
 H                     1.25787392    -1.78231993    -1.64369047
 H                     1.20698667    -2.29856963     1.10909207
 H                    -0.77766460    -3.85774589     0.43362727
 H                    -0.81756900    -2.93731764     1.94875646
 H                    -1.74771702    -2.29401057     0.57094128
 
 ==============================================================================
                                internuclear distances
 ------------------------------------------------------------------------------
       center one      |      center two      | atomic units |  angstroms
 ------------------------------------------------------------------------------
    2 C                |   1 C                |     2.79166  |     1.47728
    3 C                |   2 C                |     2.88512  |     1.52674
    4 C                |   3 C                |     2.87306  |     1.52036
    5 C                |   4 C                |     2.81165  |     1.48786
    6 C                |   1 C                |     2.82103  |     1.49282
    6 C                |   5 C                |     2.78017  |     1.47120
    7 O                |   1 C                |     2.67065  |     1.41325
    8 C                |   5 C                |     2.90012  |     1.53468
   10 C                |   2 C                |     2.83167  |     1.49845
   10 C                |   9 C                |     2.82318  |     1.49396
   11 C                |  10 C                |     2.86731  |     1.51732
   12 H                |   1 C                |     2.11585  |     1.11966
   13 H                |   2 C                |     2.11055  |     1.11685
   14 H                |   3 C                |     2.10256  |     1.11263
   15 H                |   3 C                |     2.06375  |     1.09209
   16 H                |   4 C                |     2.07866  |     1.09998
   17 H                |   4 C                |     2.12596  |     1.12501
   18 H                |   5 C                |     2.13781  |     1.13128
   19 H                |   6 C                |     2.13861  |     1.13170
   20 H                |   6 C                |     2.10608  |     1.11449
   21 H                |   7 O                |     1.83365  |     0.97033
   22 H                |   8 C                |     2.06222  |     1.09128
   23 H                |   8 C                |     2.08955  |     1.10574
   24 H                |   8 C                |     2.12897  |     1.12660
   25 H                |   9 C                |     2.13501  |     1.12980
   26 H                |   9 C                |     2.12537  |     1.12470
   27 H                |   9 C                |     2.07479  |     1.09793
   28 H                |  10 C                |     2.13175  |     1.12808
   29 H                |  11 C                |     2.11385  |     1.11860
   30 H                |  11 C                |     2.11927  |     1.12147
   31 H                |  11 C                |     2.06216  |     1.09125
 ------------------------------------------------------------------------------
                         number of included internuclear distances:         31
 ==============================================================================



 ==============================================================================
                                 internuclear angles
 ------------------------------------------------------------------------------
        center 1       |       center 2       |       center 3       |  degrees
 ------------------------------------------------------------------------------
    2 C                |   1 C                |   6 C                |   115.43
    2 C                |   1 C                |   7 O                |   108.21
    2 C                |   1 C                |  12 H                |   108.89
    6 C                |   1 C                |   7 O                |   110.35
    6 C                |   1 C                |  12 H                |   108.93
    7 O                |   1 C                |  12 H                |   104.46
    1 C                |   2 C                |   3 C                |   108.11
    1 C                |   2 C                |  10 C                |   115.10
    1 C                |   2 C                |  13 H                |   108.72
    3 C                |   2 C                |  10 C                |   107.66
    3 C                |   2 C                |  13 H                |   110.19
   10 C                |   2 C                |  13 H                |   107.02
    2 C                |   3 C                |   4 C                |   104.23
    2 C                |   3 C                |  14 H                |   105.46
    2 C                |   3 C                |  15 H                |   112.87
    4 C                |   3 C                |  14 H                |   106.00
    4 C                |   3 C                |  15 H                |   113.25
   14 H                |   3 C                |  15 H                |   114.16
    3 C                |   4 C                |   5 C                |   108.54
    3 C                |   4 C                |  16 H                |   108.71
    3 C                |   4 C                |  17 H                |   105.57
    5 C                |   4 C                |  16 H                |   114.43
    5 C                |   4 C                |  17 H                |   112.63
   16 H                |   4 C                |  17 H                |   106.54
    4 C                |   5 C                |   6 C                |   116.66
    4 C                |   5 C                |   8 C                |   107.22
    4 C                |   5 C                |  18 H                |   106.84
    6 C                |   5 C                |   8 C                |   113.23
    6 C                |   5 C                |  18 H                |   108.06
    8 C                |   5 C                |  18 H                |   103.90
    1 C                |   6 C                |   5 C                |   116.74
    1 C                |   6 C                |  19 H                |   106.62
    1 C                |   6 C                |  20 H                |   109.17
    5 C                |   6 C                |  19 H                |   107.90
    5 C                |   6 C                |  20 H                |   111.38
   19 H                |   6 C                |  20 H                |   104.17
    1 C                |   7 O                |  21 H                |   108.71
    5 C                |   8 C                |  22 H                |   111.72
    5 C                |   8 C                |  23 H                |   111.11
    5 C                |   8 C                |  24 H                |   108.22
   22 H                |   8 C                |  23 H                |   113.38
   22 H                |   8 C                |  24 H                |   106.23
   23 H                |   8 C                |  24 H                |   105.75
   10 C                |   9 C                |  25 H                |   111.99
   10 C                |   9 C                |  26 H                |   108.36
   10 C                |   9 C                |  27 H                |   114.56
   25 H                |   9 C                |  26 H                |   103.59
   25 H                |   9 C                |  27 H                |   105.88
   26 H                |   9 C                |  27 H                |   111.94
    2 C                |  10 C                |   9 C                |   113.81
    2 C                |  10 C                |  11 C                |   111.81
    2 C                |  10 C                |  28 H                |   106.35
    9 C                |  10 C                |  11 C                |   112.24
    9 C                |  10 C                |  28 H                |   106.74
   11 C                |  10 C                |  28 H                |   105.19
   10 C                |  11 C                |  29 H                |   108.29
   10 C                |  11 C                |  30 H                |   111.30
   10 C                |  11 C                |  31 H                |   111.82
   29 H                |  11 C                |  30 H                |   104.67
   29 H                |  11 C                |  31 H                |   113.23
   30 H                |  11 C                |  31 H                |   107.32
 ------------------------------------------------------------------------------
                            number of included internuclear angles:         61
 ==============================================================================





 Summary of "ao basis" -> "" (cartesian)
 ------------------------------------------------------------------------------
       Tag                 Description            Shells   Functions and Types
 ---------------- ------------------------------  ------  ---------------------
 *                           6-31g                    on all atoms 


 
                                 NWChem DFT Module
                                 -----------------
 
 
                                   Frag-00000006
 
 
                      Basis "ao basis" -> "ao basis" (cartesian)
                      -----
  C (Carbon)
  ----------
            Exponent  Coefficients 
       -------------- ---------------------------------------------------------
  1 S  3.04752490E+03  0.001835
  1 S  4.57369510E+02  0.014037
  1 S  1.03948690E+02  0.068843
  1 S  2.92101550E+01  0.232184
  1 S  9.28666300E+00  0.467941
  1 S  3.16392700E+00  0.362312
 
  2 S  7.86827240E+00 -0.119332
  2 S  1.88128850E+00 -0.160854
  2 S  5.44249300E-01  1.143456
 
  3 P  7.86827240E+00  0.068999
  3 P  1.88128850E+00  0.316424
  3 P  5.44249300E-01  0.744308
 
  4 S  1.68714400E-01  1.000000
 
  5 P  1.68714400E-01  1.000000
 
  O (Oxygen)
  ----------
            Exponent  Coefficients 
       -------------- ---------------------------------------------------------
  1 S  5.48467170E+03  0.001831
  1 S  8.25234950E+02  0.013950
  1 S  1.88046960E+02  0.068445
  1 S  5.29645000E+01  0.232714
  1 S  1.68975700E+01  0.470193
  1 S  5.79963530E+00  0.358521
 
  2 S  1.55396160E+01 -0.110778
  2 S  3.59993360E+00 -0.148026
  2 S  1.01376180E+00  1.130767
 
  3 P  1.55396160E+01  0.070874
  3 P  3.59993360E+00  0.339753
  3 P  1.01376180E+00  0.727159
 
  4 S  2.70005800E-01  1.000000
 
  5 P  2.70005800E-01  1.000000
 
  H (Hydrogen)
  ------------
            Exponent  Coefficients 
       -------------- ---------------------------------------------------------
  1 S  1.87311370E+01  0.033495
  1 S  2.82539370E+00  0.234727
  1 S  6.40121700E-01  0.813757
 
  2 S  1.61277800E-01  1.000000
 


 Summary of "ao basis" -> "ao basis" (cartesian)
 ------------------------------------------------------------------------------
       Tag                 Description            Shells   Functions and Types
 ---------------- ------------------------------  ------  ---------------------
 C                           6-31g                   5        9   3s2p
 O                           6-31g                   5        9   3s2p
 H                           6-31g                   2        2   2s




 Summary of "ao basis" -> "ao basis" (cartesian)
 ------------------------------------------------------------------------------
       Tag                 Description            Shells   Functions and Types
 ---------------- ------------------------------  ------  ---------------------
 C                           6-31g                   5        9   3s2p
 O                           6-31g                   5        9   3s2p
 H                           6-31g                   2        2   2s


  Caching 1-el integrals 
 
            General Information
            -------------------
          SCF calculation type: DFT
          Wavefunction type:  closed shell.
          No. of atoms     :    31
          No. of electrons :    88
           Alpha electrons :    44
            Beta electrons :    44
          Charge           :     0
          Spin multiplicity:     1
          Use of symmetry is: off; symmetry adaption is: off
          Maximum number of iterations:  30
          AO basis - number of functions:   139
                     number of shells:    95
          Convergence on energy requested:  1.00D-06
          Convergence on density requested:  1.00D-05
          Convergence on gradient requested:  5.00D-04
 
              XC Information
              --------------
                       M06-2X Method XC Functional
                     Hartree-Fock (Exact) Exchange  0.540          
                        M06-2X Exchange Functional  1.000          
                      M06-2X Correlation Potential  1.000          
 
             Grid Information
             ----------------
          Grid used for XC integration:  medium    
          Radial quadrature: Mura-Knowles        
          Angular quadrature: Lebedev. 
          Tag              B.-S. Rad. Rad. Pts. Rad. Cut. Ang. Pts.
          ---              ---------- --------- --------- ---------
          C                   0.70       49          14.0       434
          O                   0.60       49          12.0       434
          H                   0.35       45          14.0       434
          Grid pruning is: on 
          Number of quadrature shells:  1439
          Spatial weights used:  Erf1
 
          Convergence Information
          -----------------------
          Convergence aids based upon iterative change in 
          total energy or number of iterations. 
          Levelshifting, if invoked, occurs when the 
          HOMO/LUMO gap drops below (HL_TOL):  1.00D-02
          DIIS, if invoked, will attempt to extrapolate 
          using up to (NFOCK): 10 stored Fock matrices.

                    Damping( 0%)  Levelshifting(0.5)       DIIS
                  --------------- ------------------- ---------------
          dE  on:    start            ASAP                start   
          dE off:    2 iters         30 iters            30 iters 

 
      Screening Tolerance Information
      -------------------------------
          Density screening/tol_rho:  1.00D-10
          AO Gaussian exp screening on grid/accAOfunc:  14
          CD Gaussian exp screening on grid/accCDfunc:  20
          XC Gaussian exp screening on grid/accXCfunc:  20
          Schwarz screening/accCoul:  1.00D-08

 
      Superposition of Atomic Density Guess
      -------------------------------------
 
 Sum of atomic energies:        -461.32154450
 
      Non-variational initial energy
      ------------------------------

 Total energy =    -469.806822
 1-e energy   =   -2034.931263
 2-e energy   =     853.178068
 HOMO         =      -0.287614
 LUMO         =       0.095224
 
   Time after variat. SCF:      1.1
   Time prior to 1st pass:      1.1

 Grid_pts file          = ./LoadBalanceApplication.gridpts.0
 Record size in doubles =  12289        No. of grid_pts per rec  =   3070
 Max. records in memory =     57        Max. recs in file   = 253312716

 Grid integrated density:      87.999903351739
 Requested integration accuracy:   0.10E-05

           Memory utilization after 1st SCF pass: 
           Heap Space remaining (MW):        6.10             6102504
          Stack Space remaining (MW):       13.11            13105212

   convergence    iter        energy       DeltaE   RMS-Dens  Diis-err    time
 ---------------- ----- ----------------- --------- --------- ---------  ------
 d= 0,ls=0.0,diis     1   -467.8214573488 -1.18D+03  8.34D-03  8.22D-01     5.4
 d= 0,ls=0.0,diis     2   -467.9019564255 -8.05D-02  4.17D-03  3.89D-01     9.4
 d= 0,ls=0.0,diis     3   -467.9346530489 -3.27D-02  1.15D-03  5.34D-02    13.5
 d= 0,ls=0.0,diis     4   -467.9392502393 -4.60D-03  2.11D-04  5.62D-04    18.1
 d= 0,ls=0.0,diis     5   -467.9393163820 -6.61D-05  7.24D-05  8.10D-05    22.6
  Resetting Diis
 d= 0,ls=0.0,diis     6   -467.9393272607 -1.09D-05  1.50D-05  1.43D-06    27.1
 d= 0,ls=0.0,diis     7   -467.9393274709 -2.10D-07  3.99D-06  1.17D-07    31.9


         Total DFT energy =     -467.939327470851
      One electron energy =    -2044.704856922025
           Coulomb energy =      935.106571352838
    Exchange-Corr. energy =      -70.287414624394
 Nuclear repulsion energy =      711.946372722730

 Numeric. integr. density =       87.999915272745

     Total iterative time =     30.8s


 
                       DFT Final Molecular Orbital Analysis
                       ------------------------------------
 
 Vector    1  Occ=2.000000D+00  E=-1.961882D+01
              MO Center= -2.0D+00, -3.8D-02,  4.5D-02, r^2= 1.5D-02
   Bfn.  Coefficient  Atom+Function         Bfn.  Coefficient  Atom+Function  
  ----- ------------  ---------------      ----- ------------  ---------------
    55      0.995683   7 O  s                56      0.025623   7 O  s         
 
 Vector    2  Occ=2.000000D+00  E=-1.058221D+01
              MO Center= -7.8D-01, -4.9D-02, -5.7D-01, r^2= 2.8D-02
   Bfn.  Coefficient  Atom+Function         Bfn.  Coefficient  Atom+Function  
  ----- ------------  ---------------      ----- ------------  ---------------
     1      0.996177   1 C  s                 6     -0.041395   1 C  s         
     2      0.034729   1 C  s         
 
 Vector    3  Occ=2.000000D+00  E=-1.054713D+01
              MO Center=  3.7D-01,  2.2D+00, -3.0D-01, r^2= 3.3D-02
   Bfn.  Coefficient  Atom+Function         Bfn.  Coefficient  Atom+Function  
  ----- ------------  ---------------      ----- ------------  ---------------
    37      0.994902   5 C  s                46      0.046683   6 C  s         
    42     -0.042456   5 C  s                38      0.035375   5 C  s         
 
 Vector    4  Occ=2.000000D+00  E=-1.054282D+01
              MO Center= -4.6D-01,  1.3D+00, -1.1D+00, r^2= 3.3D-02
   Bfn.  Coefficient  Atom+Function         Bfn.  Coefficient  Atom+Function  
  ----- ------------  ---------------      ----- ------------  ---------------
    46      0.994994   6 C  s                37     -0.046774   5 C  s         
    51     -0.039701   6 C  s                47      0.034711   6 C  s         
 
 Vector    5  Occ=2.000000D+00  E=-1.053824D+01
              MO Center= -4.4D-01,  3.1D+00,  5.7D-01, r^2= 2.8D-02
   Bfn.  Coefficient  Atom+Function         Bfn.  Coefficient  Atom+Function  
  ----- ------------  ---------------      ----- ------------  ---------------
    64      0.995770   8 C  s                65      0.032551   8 C  s         
    69     -0.028487   8 C  s         
 
 Vector    6  Occ=2.000000D+00  E=-1.053361D+01
              MO Center=  1.4D+00,  1.5D+00,  5.9D-01, r^2= 3.5D-02
   Bfn.  Coefficient  Atom+Function         Bfn.  Coefficient  Atom+Function  
  ----- ------------  ---------------      ----- ------------  ---------------
    28      0.994611   4 C  s                19      0.053113   3 C  s         
    33     -0.037456   4 C  s                29      0.034549   4 C  s         
 
 Vector    7  Occ=2.000000D+00  E=-1.053058D+01
              MO Center=  1.5D+00,  8.4D-02,  1.3D-01, r^2= 3.6D-02
   Bfn.  Coefficient  Atom+Function         Bfn.  Coefficient  Atom+Function  
  ----- ------------  ---------------      ----- ------------  ---------------
    19      0.994220   3 C  s                28     -0.053161   4 C  s         
    24     -0.037758   3 C  s                20      0.034503   3 C  s         
    10      0.031067   2 C  s         
 
 Vector    8  Occ=2.000000D+00  E=-1.052955D+01
              MO Center=  4.0D-01, -2.1D+00,  3.5D-01, r^2= 3.5D-02
   Bfn.  Coefficient  Atom+Function         Bfn.  Coefficient  Atom+Function  
  ----- ------------  ---------------      ----- ------------  ---------------
    82      0.994538  10 C  s                10      0.045113   2 C  s         
    87     -0.042768  10 C  s                73      0.035808   9 C  s         
    83      0.035580  10 C  s         
 
 Vector    9  Occ=2.000000D+00  E=-1.052553D+01
              MO Center=  2.0D-01, -5.8D-01,  4.0D-01, r^2= 3.7D-02
   Bfn.  Coefficient  Atom+Function         Bfn.  Coefficient  Atom+Function  
  ----- ------------  ---------------      ----- ------------  ---------------
    10      0.994563   2 C  s                15     -0.045880   2 C  s         
    82     -0.044557  10 C  s                11      0.035978   2 C  s         
    19     -0.031074   3 C  s         
 
 Vector   10  Occ=2.000000D+00  E=-1.052464D+01
              MO Center=  8.9D-01, -2.6D+00, -9.6D-01, r^2= 3.3D-02
   Bfn.  Coefficient  Atom+Function         Bfn.  Coefficient  Atom+Function  
  ----- ------------  ---------------      ----- ------------  ---------------
    73      0.995064   9 C  s                82     -0.036806  10 C  s         
    74      0.032531   9 C  s                78     -0.029548   9 C  s         
 
 Vector   11  Occ=2.000000D+00  E=-1.051107D+01
              MO Center= -8.3D-01, -2.8D+00,  8.3D-01, r^2= 2.8D-02
   Bfn.  Coefficient  Atom+Function         Bfn.  Coefficient  Atom+Function  
  ----- ------------  ---------------      ----- ------------  ---------------
    91      0.995892  11 C  s                92      0.032646  11 C  s         
    96     -0.029601  11 C  s         
 
 Vector   12  Occ=2.000000D+00  E=-1.149400D+00
              MO Center= -1.8D+00,  1.2D-01, -4.3D-02, r^2= 7.1D-01
   Bfn.  Coefficient  Atom+Function         Bfn.  Coefficient  Atom+Function  
  ----- ------------  ---------------      ----- ------------  ---------------
    60      0.461455   7 O  s                56      0.427437   7 O  s         
    55     -0.197205   7 O  s                 2      0.155671   1 C  s         
   118      0.127378  21 H  s                58      0.092843   7 O  py        
     3     -0.089008   1 C  px                1     -0.081720   1 C  s         
    57      0.075795   7 O  px               61      0.054348   7 O  px        
 
 Vector   13  Occ=2.000000D+00  E=-9.620646D-01
              MO Center=  3.5D-01,  6.6D-01, -5.7D-02, r^2= 3.3D+00
   Bfn.  Coefficient  Atom+Function         Bfn.  Coefficient  Atom+Function  
  ----- ------------  ---------------      ----- ------------  ---------------
    38      0.173926   5 C  s                11      0.157185   2 C  s         
    29      0.151185   4 C  s                20      0.147254   3 C  s         
    47      0.142090   6 C  s                42      0.133769   5 C  s         
    60     -0.132456   7 O  s                24      0.120011   3 C  s         
    15      0.113475   2 C  s                51      0.109464   6 C  s         
 
 Vector   14  Occ=2.000000D+00  E=-9.108735D-01
              MO Center=  2.2D-01, -3.9D-01,  4.2D-02, r^2= 5.6D+00
   Bfn.  Coefficient  Atom+Function         Bfn.  Coefficient  Atom+Function  
  ----- ------------  ---------------      ----- ------------  ---------------
    83      0.211623  10 C  s                87      0.172669  10 C  s         
    38     -0.170040   5 C  s                11      0.149861   2 C  s         
    42     -0.143451   5 C  s                15      0.131109   2 C  s         
    74      0.130903   9 C  s                82     -0.114774  10 C  s         
    92      0.113763  11 C  s                65     -0.109208   8 C  s         
 
 Vector   15  Occ=2.000000D+00  E=-8.435070D-01
              MO Center=  4.3D-01,  1.6D-02,  1.1D-01, r^2= 6.4D+00
   Bfn.  Coefficient  Atom+Function         Bfn.  Coefficient  Atom+Function  
  ----- ------------  ---------------      ----- ------------  ---------------
    20      0.190643   3 C  s                24      0.190159   3 C  s         
    65     -0.152733   8 C  s                69     -0.144164   8 C  s         
    83     -0.133198  10 C  s                74     -0.131598   9 C  s         
    92     -0.130342  11 C  s                87     -0.121506  10 C  s         
    78     -0.118338   9 C  s                38     -0.115792   5 C  s         
 
 Vector   16  Occ=2.000000D+00  E=-8.360058D-01
              MO Center= -7.9D-02,  8.1D-01, -3.1D-01, r^2= 3.9D+00
   Bfn.  Coefficient  Atom+Function         Bfn.  Coefficient  Atom+Function  
  ----- ------------  ---------------      ----- ------------  ---------------
    47      0.214031   6 C  s                 6      0.210726   1 C  s         
     2      0.207559   1 C  s                51      0.202675   6 C  s         
    29     -0.174594   4 C  s                33     -0.169782   4 C  s         
    60     -0.158104   7 O  s                56     -0.115323   7 O  s         
    46     -0.113946   6 C  s                 1     -0.108403   1 C  s         
 
 Vector   17  Occ=2.000000D+00  E=-7.710138D-01
              MO Center=  6.0D-02,  7.0D-01, -3.6D-02, r^2= 7.4D+00
   Bfn.  Coefficient  Atom+Function         Bfn.  Coefficient  Atom+Function  
  ----- ------------  ---------------      ----- ------------  ---------------
    69      0.237073   8 C  s                65      0.226210   8 C  s         
    78     -0.182474   9 C  s                74     -0.175056   9 C  s         
    15      0.172910   2 C  s                11      0.160610   2 C  s         
    51     -0.150191   6 C  s                47     -0.123402   6 C  s         
    64     -0.119505   8 C  s                33     -0.103163   4 C  s         
 
 Vector   18  Occ=2.000000D+00  E=-7.599472D-01
              MO Center= -7.8D-02, -2.0D+00,  1.8D-01, r^2= 5.8D+00
   Bfn.  Coefficient  Atom+Function         Bfn.  Coefficient  Atom+Function  
  ----- ------------  ---------------      ----- ------------  ---------------
    96      0.279718  11 C  s                92      0.270525  11 C  s         
    78     -0.229535   9 C  s                74     -0.213577   9 C  s         
    91     -0.143187  11 C  s                69     -0.117502   8 C  s         
    73      0.112948   9 C  s                65     -0.107166   8 C  s         
    86      0.103519  10 C  pz               84     -0.101543  10 C  px        
 
 Vector   19  Occ=2.000000D+00  E=-7.113938D-01
              MO Center=  5.6D-02,  3.4D-01, -1.1D-01, r^2= 4.8D+00
   Bfn.  Coefficient  Atom+Function         Bfn.  Coefficient  Atom+Function  
  ----- ------------  ---------------      ----- ------------  ---------------
     6      0.234184   1 C  s                33      0.188748   4 C  s         
     2      0.187637   1 C  s                24     -0.177209   3 C  s         
    29      0.159797   4 C  s                51     -0.158801   6 C  s         
    20     -0.141646   3 C  s                57      0.134959   7 O  px        
    12     -0.126363   2 C  px               58     -0.124856   7 O  py        
 
 Vector   20  Occ=2.000000D+00  E=-6.867724D-01
              MO Center=  1.6D-01,  4.1D-01,  1.5D-01, r^2= 6.9D+00
   Bfn.  Coefficient  Atom+Function         Bfn.  Coefficient  Atom+Function  
  ----- ------------  ---------------      ----- ------------  ---------------
    42     -0.211457   5 C  s                24      0.205064   3 C  s         
    69      0.178565   8 C  s                38     -0.165407   5 C  s         
    20      0.157305   3 C  s                96      0.155707  11 C  s         
    15     -0.154484   2 C  s                65      0.139350   8 C  s         
    87     -0.128259  10 C  s                11     -0.127268   2 C  s         
 
 Vector   21  Occ=2.000000D+00  E=-6.357497D-01
              MO Center=  3.8D-01, -2.1D-02,  5.9D-02, r^2= 6.6D+00
   Bfn.  Coefficient  Atom+Function         Bfn.  Coefficient  Atom+Function  
  ----- ------------  ---------------      ----- ------------  ---------------
    87      0.210816  10 C  s                33      0.203374   4 C  s         
    42     -0.194772   5 C  s                83      0.157016  10 C  s         
    29      0.130346   4 C  s                51      0.128181   6 C  s         
    96     -0.127290  11 C  s                38     -0.125405   5 C  s         
    24     -0.122693   3 C  s                32      0.116340   4 C  pz        
 
 Vector   22  Occ=2.000000D+00  E=-6.201297D-01
              MO Center=  6.3D-02,  2.1D-02, -3.9D-02, r^2= 5.3D+00
   Bfn.  Coefficient  Atom+Function         Bfn.  Coefficient  Atom+Function  
  ----- ------------  ---------------      ----- ------------  ---------------
    15      0.144609   2 C  s                58      0.143468   7 O  py        
     3      0.130503   1 C  px               13      0.124431   2 C  py        
    24     -0.124612   3 C  s                87     -0.121391  10 C  s         
    42     -0.118632   5 C  s                59      0.118983   7 O  pz        
     4      0.116487   1 C  py               21     -0.111117   3 C  px        
 
 Vector   23  Occ=2.000000D+00  E=-5.758122D-01
              MO Center= -3.4D-01,  2.2D-01, -1.2D-01, r^2= 4.6D+00
   Bfn.  Coefficient  Atom+Function         Bfn.  Coefficient  Atom+Function  
  ----- ------------  ---------------      ----- ------------  ---------------
    57     -0.196661   7 O  px                3      0.194652   1 C  px        
    58      0.191659   7 O  py               14     -0.161546   2 C  pz        
    49     -0.159417   6 C  py              118      0.149011  21 H  s         
    23     -0.135709   3 C  pz                5     -0.117364   1 C  pz        
    62      0.101704   7 O  py               61     -0.100734   7 O  px        
 
 Vector   24  Occ=2.000000D+00  E=-5.625085D-01
              MO Center=  2.1D-03,  1.0D-01, -2.7D-01, r^2= 6.1D+00
   Bfn.  Coefficient  Atom+Function         Bfn.  Coefficient  Atom+Function  
  ----- ------------  ---------------      ----- ------------  ---------------
    50      0.216528   6 C  pz               15     -0.157211   2 C  s         
    57      0.154497   7 O  px               85     -0.138558  10 C  py        
   116     -0.131649  20 H  s                 4      0.125258   1 C  py        
    30     -0.121449   4 C  px               87      0.113976  10 C  s         
     6      0.108814   1 C  s                77      0.104260   9 C  pz        
 
 Vector   25  Occ=2.000000D+00  E=-5.256660D-01
              MO Center=  9.7D-02,  2.2D-01, -9.5D-03, r^2= 6.8D+00
   Bfn.  Coefficient  Atom+Function         Bfn.  Coefficient  Atom+Function  
  ----- ------------  ---------------      ----- ------------  ---------------
    22      0.172948   3 C  py                5      0.154997   1 C  pz        
    66     -0.146779   8 C  px               12     -0.130827   2 C  px        
    41     -0.130817   5 C  pz               48      0.114862   6 C  px        
    67      0.110146   8 C  py               40     -0.108357   5 C  py        
    87      0.106633  10 C  s                85     -0.105609  10 C  py        
 
 Vector   26  Occ=2.000000D+00  E=-5.208912D-01
              MO Center=  1.6D-01,  1.6D-01,  2.2D-02, r^2= 7.9D+00
   Bfn.  Coefficient  Atom+Function         Bfn.  Coefficient  Atom+Function  
  ----- ------------  ---------------      ----- ------------  ---------------
    67      0.166473   8 C  py               39      0.164290   5 C  px        
    86      0.143427  10 C  pz               49     -0.135189   6 C  py        
    75      0.120761   9 C  px              124      0.113234  24 H  s         
    76     -0.109508   9 C  py               13      0.104728   2 C  py        
    95      0.103550  11 C  pz               84      0.101556  10 C  px        
 
 Vector   27  Occ=2.000000D+00  E=-5.155714D-01
              MO Center= -2.5D-01,  1.1D+00, -8.1D-02, r^2= 5.4D+00
   Bfn.  Coefficient  Atom+Function         Bfn.  Coefficient  Atom+Function  
  ----- ------------  ---------------      ----- ------------  ---------------
    58      0.218447   7 O  py               68     -0.189362   8 C  pz        
    30      0.175215   4 C  px               60     -0.166605   7 O  s         
    48     -0.155073   6 C  px               40      0.143705   5 C  py        
    62      0.131740   7 O  py              116     -0.128538  20 H  s         
    50      0.127188   6 C  pz              120     -0.125210  22 H  s         
 
 Vector   28  Occ=2.000000D+00  E=-4.978388D-01
              MO Center=  4.0D-01, -8.7D-01, -1.6D-01, r^2= 6.7D+00
   Bfn.  Coefficient  Atom+Function         Bfn.  Coefficient  Atom+Function  
  ----- ------------  ---------------      ----- ------------  ---------------
    75     -0.170428   9 C  px               23      0.155538   3 C  pz        
    76     -0.136020   9 C  py              130     -0.135974  27 H  s         
    95     -0.131620  11 C  pz               85     -0.110506  10 C  py        
     5     -0.104470   1 C  pz               57     -0.103041   7 O  px        
    13      0.097904   2 C  py               94     -0.097971  11 C  py        
 
 Vector   29  Occ=2.000000D+00  E=-4.812467D-01
              MO Center= -2.0D-01,  8.3D-01,  1.9D-01, r^2= 7.8D+00
   Bfn.  Coefficient  Atom+Function         Bfn.  Coefficient  Atom+Function  
  ----- ------------  ---------------      ----- ------------  ---------------
    68      0.212093   8 C  pz               66      0.180093   8 C  px        
   122     -0.171794  23 H  s               123     -0.137676  23 H  s         
    57      0.131308   7 O  px               21      0.129403   3 C  px        
     4      0.118421   1 C  py               84     -0.117671  10 C  px        
    75     -0.116105   9 C  px              120      0.108648  22 H  s         
 
 Vector   30  Occ=2.000000D+00  E=-4.677373D-01
              MO Center=  9.5D-02, -3.7D-01,  7.4D-02, r^2= 6.2D+00
   Bfn.  Coefficient  Atom+Function         Bfn.  Coefficient  Atom+Function  
  ----- ------------  ---------------      ----- ------------  ---------------
    32      0.175550   4 C  pz               59      0.171614   7 O  pz        
    14     -0.169374   2 C  pz                5      0.161023   1 C  pz        
    94     -0.156751  11 C  py               77      0.136714   9 C  pz        
    84      0.131588  10 C  px               22     -0.126473   3 C  py        
     3      0.123266   1 C  px               63      0.115545   7 O  pz        
 
 Vector   31  Occ=2.000000D+00  E=-4.638305D-01
              MO Center=  2.1D-01, -9.4D-02, -1.0D-01, r^2= 6.5D+00
   Bfn.  Coefficient  Atom+Function         Bfn.  Coefficient  Atom+Function  
  ----- ------------  ---------------      ----- ------------  ---------------
    21      0.222813   3 C  px                6      0.170080   1 C  s         
   106      0.152175  15 H  s                48      0.150499   6 C  px        
    76     -0.134690   9 C  py               86      0.134878  10 C  pz        
    12     -0.132744   2 C  px               67     -0.124915   8 C  py        
   107      0.124814  15 H  s                42      0.123976   5 C  s         
 
 Vector   32  Occ=2.000000D+00  E=-4.473310D-01
              MO Center= -9.4D-02,  2.6D-01, -1.5D-02, r^2= 8.1D+00
   Bfn.  Coefficient  Atom+Function         Bfn.  Coefficient  Atom+Function  
  ----- ------------  ---------------      ----- ------------  ---------------
    67      0.198330   8 C  py               23      0.171147   3 C  pz        
    15     -0.164704   2 C  s                 4      0.150696   1 C  py        
    48      0.145875   6 C  px               94      0.143418  11 C  py        
    93     -0.139860  11 C  px               76      0.131256   9 C  py        
   138      0.130761  31 H  s               124      0.127143  24 H  s         
 
 Vector   33  Occ=2.000000D+00  E=-4.378745D-01
              MO Center= -5.5D-02, -4.3D-01, -1.9D-02, r^2= 8.8D+00
   Bfn.  Coefficient  Atom+Function         Bfn.  Coefficient  Atom+Function  
  ----- ------------  ---------------      ----- ------------  ---------------
    94      0.204397  11 C  py               66      0.170800   8 C  px        
    76     -0.158941   9 C  py               41      0.135966   5 C  pz        
   126      0.131446  25 H  s                68     -0.125725   8 C  pz        
   134     -0.123666  29 H  s                48     -0.120211   6 C  px        
   127      0.115134  25 H  s                23     -0.113181   3 C  pz        
 
 Vector   34  Occ=2.000000D+00  E=-4.342059D-01
              MO Center=  2.3D-01, -9.5D-01,  1.1D-01, r^2= 8.0D+00
   Bfn.  Coefficient  Atom+Function         Bfn.  Coefficient  Atom+Function  
  ----- ------------  ---------------      ----- ------------  ---------------
    93      0.227904  11 C  px               76      0.157703   9 C  py        
    77     -0.150207   9 C  pz              138     -0.143344  31 H  s         
    32      0.137808   4 C  pz              130      0.129538  27 H  s         
    66      0.127372   8 C  px              126     -0.126970  25 H  s         
   131      0.121561  27 H  s                15     -0.112467   2 C  s         
 
 Vector   35  Occ=2.000000D+00  E=-4.113733D-01
              MO Center= -1.5D-01,  2.9D-01, -8.7D-02, r^2= 8.0D+00
   Bfn.  Coefficient  Atom+Function         Bfn.  Coefficient  Atom+Function  
  ----- ------------  ---------------      ----- ------------  ---------------
    50      0.183991   6 C  pz               58     -0.180069   7 O  py        
    51      0.150793   6 C  s                57     -0.140824   7 O  px        
    95      0.131419  11 C  pz               60      0.129500   7 O  s         
    30      0.128602   4 C  px              128      0.125095  26 H  s         
    66      0.120159   8 C  px              124      0.120670  24 H  s         
 
 Vector   36  Occ=2.000000D+00  E=-4.101444D-01
              MO Center= -4.7D-02,  1.0D+00, -7.0D-02, r^2= 6.4D+00
   Bfn.  Coefficient  Atom+Function         Bfn.  Coefficient  Atom+Function  
  ----- ------------  ---------------      ----- ------------  ---------------
    68     -0.212065   8 C  pz               31      0.207216   4 C  py        
    49     -0.191918   6 C  py               22     -0.164298   3 C  py        
    41      0.165007   5 C  pz                4      0.159331   1 C  py        
    58     -0.137223   7 O  py              122      0.125511  23 H  s         
    60      0.119312   7 O  s               123      0.110783  23 H  s         
 
 Vector   37  Occ=2.000000D+00  E=-4.011220D-01
              MO Center= -1.5D-01, -7.8D-01,  1.6D-01, r^2= 7.5D+00
   Bfn.  Coefficient  Atom+Function         Bfn.  Coefficient  Atom+Function  
  ----- ------------  ---------------      ----- ------------  ---------------
    57      0.170332   7 O  px               95      0.170085  11 C  pz        
    94      0.152775  11 C  py               32      0.147743   4 C  pz        
    76     -0.143804   9 C  py              134     -0.141017  29 H  s         
    14     -0.134588   2 C  pz              135     -0.129715  29 H  s         
    61      0.128298   7 O  px               75     -0.127733   9 C  px        
 
 Vector   38  Occ=2.000000D+00  E=-3.919624D-01
              MO Center=  1.5D-01, -1.1D-01,  1.3D-01, r^2= 7.1D+00
   Bfn.  Coefficient  Atom+Function         Bfn.  Coefficient  Atom+Function  
  ----- ------------  ---------------      ----- ------------  ---------------
    32      0.208797   4 C  pz               59     -0.209195   7 O  pz        
    95     -0.189057  11 C  pz               41     -0.183305   5 C  pz        
    63     -0.152923   7 O  pz               23     -0.148349   3 C  pz        
    39     -0.137825   5 C  px               75      0.135982   9 C  px        
   136     -0.125798  30 H  s                50      0.124315   6 C  pz        
 
 Vector   39  Occ=2.000000D+00  E=-3.834846D-01
              MO Center=  1.1D-01,  9.2D-02,  6.1D-02, r^2= 7.3D+00
   Bfn.  Coefficient  Atom+Function         Bfn.  Coefficient  Atom+Function  
  ----- ------------  ---------------      ----- ------------  ---------------
    13      0.198422   2 C  py               40      0.199024   5 C  py        
    30      0.181385   4 C  px               67     -0.167675   8 C  py        
    85     -0.165901  10 C  py               58     -0.153900   7 O  py        
    76      0.138725   9 C  py                4      0.136194   1 C  py        
    17      0.125625   2 C  py               44      0.119597   5 C  py        
 
 Vector   40  Occ=2.000000D+00  E=-3.680945D-01
              MO Center=  9.6D-02, -6.1D-01,  9.4D-02, r^2= 6.2D+00
   Bfn.  Coefficient  Atom+Function         Bfn.  Coefficient  Atom+Function  
  ----- ------------  ---------------      ----- ------------  ---------------
    77      0.193797   9 C  pz               86     -0.183108  10 C  pz        
    14      0.174082   2 C  pz               39     -0.169319   5 C  px        
    93     -0.151802  11 C  px              103      0.143168  13 H  s         
    95      0.142143  11 C  pz               84      0.141381  10 C  px        
   102      0.138146  13 H  s                23     -0.123941   3 C  pz        
 
 Vector   41  Occ=2.000000D+00  E=-3.616302D-01
              MO Center= -1.4D-01, -1.7D+00,  1.6D-01, r^2= 5.1D+00
   Bfn.  Coefficient  Atom+Function         Bfn.  Coefficient  Atom+Function  
  ----- ------------  ---------------      ----- ------------  ---------------
    84      0.231468  10 C  px               59      0.217242   7 O  pz        
   133      0.209064  28 H  s               132      0.206246  28 H  s         
    15     -0.199055   2 C  s                93     -0.197248  11 C  px        
    86      0.176349  10 C  pz               63      0.161014   7 O  pz        
    88      0.141983  10 C  px               77     -0.136713   9 C  pz        
 
 Vector   42  Occ=2.000000D+00  E=-3.577563D-01
              MO Center=  3.4D-01,  9.4D-01,  6.6D-02, r^2= 5.4D+00
   Bfn.  Coefficient  Atom+Function         Bfn.  Coefficient  Atom+Function  
  ----- ------------  ---------------      ----- ------------  ---------------
    39      0.167272   5 C  px               67      0.166036   8 C  py        
    31      0.148981   4 C  py               22     -0.147592   3 C  py        
    30     -0.147715   4 C  px              111      0.147093  17 H  s         
    57     -0.143855   7 O  px               23     -0.133764   3 C  pz        
    66     -0.129506   8 C  px              103      0.123943  13 H  s         
 
 Vector   43  Occ=2.000000D+00  E=-3.282048D-01
              MO Center= -4.5D-02, -3.4D-02,  3.3D-02, r^2= 5.6D+00
   Bfn.  Coefficient  Atom+Function         Bfn.  Coefficient  Atom+Function  
  ----- ------------  ---------------      ----- ------------  ---------------
    13      0.260348   2 C  py               59     -0.232945   7 O  pz        
    85     -0.233387  10 C  py               63     -0.189236   7 O  pz        
    31      0.181230   4 C  py               49      0.175972   6 C  py        
    17      0.166117   2 C  py                4     -0.163738   1 C  py        
    22     -0.159442   3 C  py               58      0.151279   7 O  py        
 
 Vector   44  Occ=2.000000D+00  E=-3.145556D-01
              MO Center= -5.6D-01, -3.8D-01, -9.6D-03, r^2= 4.4D+00
   Bfn.  Coefficient  Atom+Function         Bfn.  Coefficient  Atom+Function  
  ----- ------------  ---------------      ----- ------------  ---------------
    59      0.337214   7 O  pz               63      0.274363   7 O  pz        
    12      0.240279   2 C  px               57      0.217817   7 O  px        
     5     -0.190854   1 C  pz               61      0.188187   7 O  px        
   101      0.168711  12 H  s                21     -0.159678   3 C  px        
   100      0.142773  12 H  s                 3     -0.138612   1 C  px        
 
 Vector   45  Occ=0.000000D+00  E= 8.895602D-02
              MO Center= -2.6D-01,  1.7D+00, -4.9D-01, r^2= 7.1D+00
   Bfn.  Coefficient  Atom+Function         Bfn.  Coefficient  Atom+Function  
  ----- ------------  ---------------      ----- ------------  ---------------
   117      0.689510  20 H  s               113      0.678921  18 H  s         
   125      0.619845  24 H  s                42     -0.603412   5 C  s         
   119      0.602695  21 H  s                69     -0.569197   8 C  s         
    51     -0.466657   6 C  s                60     -0.408706   7 O  s         
    54      0.401033   6 C  pz               24     -0.394989   3 C  s         
 
 Vector   46  Occ=0.000000D+00  E= 1.176359D-01
              MO Center= -4.4D-01,  1.2D+00, -1.6D-01, r^2= 7.0D+00
   Bfn.  Coefficient  Atom+Function         Bfn.  Coefficient  Atom+Function  
  ----- ------------  ---------------      ----- ------------  ---------------
   115      0.633845  19 H  s               117     -0.567467  20 H  s         
   103      0.563934  13 H  s               111      0.545204  17 H  s         
    52      0.526520   6 C  px              101     -0.503473  12 H  s         
   119      0.496728  21 H  s                69     -0.480332   8 C  s         
   113     -0.475378  18 H  s                15     -0.467971   2 C  s         
 
 Vector   47  Occ=0.000000D+00  E= 1.258040D-01
              MO Center=  6.9D-01, -1.3D+00,  4.4D-01, r^2= 8.3D+00
   Bfn.  Coefficient  Atom+Function         Bfn.  Coefficient  Atom+Function  
  ----- ------------  ---------------      ----- ------------  ---------------
   133      0.885060  28 H  s                87     -0.764911  10 C  s         
    24     -0.742072   3 C  s               127      0.732274  25 H  s         
    78     -0.717264   9 C  s               107      0.625465  15 H  s         
   137      0.478391  30 H  s               119     -0.471072  21 H  s         
   103      0.451215  13 H  s                60      0.409923   7 O  s         
 
 Vector   48  Occ=0.000000D+00  E= 1.333364D-01
              MO Center=  3.3D-01,  8.9D-01, -3.1D-01, r^2= 7.4D+00
   Bfn.  Coefficient  Atom+Function         Bfn.  Coefficient  Atom+Function  
  ----- ------------  ---------------      ----- ------------  ---------------
   105      0.784924  14 H  s               115      0.768165  19 H  s         
   121     -0.610428  22 H  s               131      0.592124  27 H  s         
    69      0.538850   8 C  s                27      0.477858   3 C  pz        
   103     -0.444849  13 H  s                51     -0.431240   6 C  s         
    54      0.421181   6 C  pz               72      0.419594   8 C  pz        
 
 Vector   49  Occ=0.000000D+00  E= 1.490205D-01
              MO Center= -2.1D-01,  2.8D-02,  1.5D-01, r^2= 1.0D+01
   Bfn.  Coefficient  Atom+Function         Bfn.  Coefficient  Atom+Function  
  ----- ------------  ---------------      ----- ------------  ---------------
    33      0.797210   4 C  s                51      0.723378   6 C  s         
   119      0.723074  21 H  s                96     -0.714091  11 C  s         
    60     -0.635910   7 O  s                24      0.545592   3 C  s         
   109     -0.540633  16 H  s               113     -0.521620  18 H  s         
   111     -0.510147  17 H  s                78     -0.478097   9 C  s         
 
 Vector   50  Occ=0.000000D+00  E= 1.653528D-01
              MO Center=  5.7D-01,  1.5D-02,  1.3D-01, r^2= 9.4D+00
   Bfn.  Coefficient  Atom+Function         Bfn.  Coefficient  Atom+Function  
  ----- ------------  ---------------      ----- ------------  ---------------
   133      0.687990  28 H  s               131     -0.658351  27 H  s         
   111     -0.632295  17 H  s                78      0.600403   9 C  s         
   103     -0.579789  13 H  s               121     -0.568732  22 H  s         
    18      0.512975   2 C  pz               24      0.510215   3 C  s         
    36      0.492147   4 C  pz              123      0.477298  23 H  s         
 
 Vector   51  Occ=0.000000D+00  E= 1.686318D-01
              MO Center= -4.4D-01, -3.7D-02, -5.8D-01, r^2= 1.0D+01
   Bfn.  Coefficient  Atom+Function         Bfn.  Coefficient  Atom+Function  
  ----- ------------  ---------------      ----- ------------  ---------------
   101      0.897414  12 H  s               123      0.852916  23 H  s         
   129      0.834409  26 H  s                69     -0.731666   8 C  s         
    51     -0.685777   6 C  s                78     -0.656259   9 C  s         
   115      0.580140  19 H  s                 8      0.546798   1 C  py        
    70      0.538861   8 C  px              105     -0.486979  14 H  s         
 
 Vector   52  Occ=0.000000D+00  E= 1.744853D-01
              MO Center=  1.8D-01, -1.1D+00, -2.6D-01, r^2= 1.0D+01
   Bfn.  Coefficient  Atom+Function         Bfn.  Coefficient  Atom+Function  
  ----- ------------  ---------------      ----- ------------  ---------------
   135      0.881928  29 H  s               129      0.704210  26 H  s         
   101     -0.644374  12 H  s                98      0.604667  11 C  py        
   109      0.555918  16 H  s               113      0.516060  18 H  s         
    87     -0.503395  10 C  s                81      0.454350   9 C  pz        
   127     -0.448016  25 H  s               117     -0.428902  20 H  s         
 
 Vector   53  Occ=0.000000D+00  E= 1.849288D-01
              MO Center=  2.9D-01,  1.0D+00,  2.5D-01, r^2= 1.1D+01
   Bfn.  Coefficient  Atom+Function         Bfn.  Coefficient  Atom+Function  
  ----- ------------  ---------------      ----- ------------  ---------------
    69      1.670368   8 C  s                24     -0.813556   3 C  s         
    96      0.739525  11 C  s               107      0.709730  15 H  s         
   125     -0.707210  24 H  s                33     -0.696449   4 C  s         
   123     -0.639783  23 H  s               121     -0.511577  22 H  s         
   131     -0.503278  27 H  s               109      0.463049  16 H  s         
 
 Vector   54  Occ=0.000000D+00  E= 2.025039D-01
              MO Center=  4.3D-01,  3.0D-01,  2.1D-01, r^2= 1.1D+01
   Bfn.  Coefficient  Atom+Function         Bfn.  Coefficient  Atom+Function  
  ----- ------------  ---------------      ----- ------------  ---------------
    69      1.243681   8 C  s                78      1.101251   9 C  s         
   121     -0.809809  22 H  s                42     -0.749922   5 C  s         
   103      0.736714  13 H  s               131     -0.713311  27 H  s         
   107     -0.680587  15 H  s                24      0.649220   3 C  s         
    96     -0.649447  11 C  s               137      0.648314  30 H  s         
 
 Vector   55  Occ=0.000000D+00  E= 2.097177D-01
              MO Center=  1.8D-01, -3.0D-01,  6.6D-01, r^2= 1.3D+01
   Bfn.  Coefficient  Atom+Function         Bfn.  Coefficient  Atom+Function  
  ----- ------------  ---------------      ----- ------------  ---------------
    96      1.651158  11 C  s                33      1.064092   4 C  s         
   137     -0.894251  30 H  s               109     -0.875155  16 H  s         
   125      0.746819  24 H  s               127      0.587494  25 H  s         
   139     -0.554511  31 H  s                70     -0.468833   8 C  px        
    15     -0.465549   2 C  s               135     -0.446212  29 H  s         
 
 Vector   56  Occ=0.000000D+00  E= 2.161418D-01
              MO Center=  8.9D-01, -4.8D-01, -1.8D-01, r^2= 1.0D+01
   Bfn.  Coefficient  Atom+Function         Bfn.  Coefficient  Atom+Function  
  ----- ------------  ---------------      ----- ------------  ---------------
    78      1.199111   9 C  s                33      1.078799   4 C  s         
   127     -0.974874  25 H  s                51     -0.952665   6 C  s         
     6      0.814737   1 C  s               107      0.787134  15 H  s         
   117      0.782137  20 H  s                87     -0.727304  10 C  s         
   109     -0.636339  16 H  s                15     -0.602816   2 C  s         
 
 Vector   57  Occ=0.000000D+00  E= 2.182336D-01
              MO Center= -5.2D-02, -6.6D-01,  5.6D-02, r^2= 1.2D+01
   Bfn.  Coefficient  Atom+Function         Bfn.  Coefficient  Atom+Function  
  ----- ------------  ---------------      ----- ------------  ---------------
    51      1.227424   6 C  s               129      0.885653  26 H  s         
   125      0.784634  24 H  s               137      0.743498  30 H  s         
   135     -0.701151  29 H  s                42     -0.674803   5 C  s         
    99     -0.661544  11 C  pz               71     -0.619162   8 C  py        
    79      0.604817   9 C  px              105      0.550059  14 H  s         
 
 Vector   58  Occ=0.000000D+00  E= 2.251892D-01
              MO Center=  4.8D-02, -6.9D-01,  4.5D-01, r^2= 1.1D+01
   Bfn.  Coefficient  Atom+Function         Bfn.  Coefficient  Atom+Function  
  ----- ------------  ---------------      ----- ------------  ---------------
   135     -1.042060  29 H  s                33      1.004444   4 C  s         
    78     -0.746221   9 C  s               111     -0.689105  17 H  s         
   137      0.688243  30 H  s                35     -0.605580   4 C  py        
    99     -0.607229  11 C  pz              125     -0.577967  24 H  s         
    24     -0.544725   3 C  s                26     -0.543143   3 C  py        
 
 Vector   59  Occ=0.000000D+00  E= 2.310753D-01
              MO Center=  1.1D-01,  7.0D-01, -2.1D-01, r^2= 1.2D+01
   Bfn.  Coefficient  Atom+Function         Bfn.  Coefficient  Atom+Function  
  ----- ------------  ---------------      ----- ------------  ---------------
    42      1.875612   5 C  s                 6     -1.111246   1 C  s         
   125      1.017770  24 H  s                51     -0.931248   6 C  s         
   101      0.849417  12 H  s                69     -0.761916   8 C  s         
    96     -0.747866  11 C  s               113     -0.736171  18 H  s         
   127     -0.644286  25 H  s                70     -0.640533   8 C  px        
 
 Vector   60  Occ=0.000000D+00  E= 2.408182D-01
              MO Center=  1.3D-02,  1.7D+00,  1.6D-01, r^2= 7.7D+00
   Bfn.  Coefficient  Atom+Function         Bfn.  Coefficient  Atom+Function  
  ----- ------------  ---------------      ----- ------------  ---------------
    42      1.430188   5 C  s                33     -1.232835   4 C  s         
    72      0.952975   8 C  pz               51      0.840830   6 C  s         
   103      0.789950  13 H  s               115     -0.775451  19 H  s         
   123      0.745123  23 H  s                69     -0.738540   8 C  s         
   121     -0.739031  22 H  s                44      0.731627   5 C  py        
 
 Vector   61  Occ=0.000000D+00  E= 2.471645D-01
              MO Center= -2.8D-01,  5.2D-01,  1.1D-01, r^2= 9.4D+00
   Bfn.  Coefficient  Atom+Function         Bfn.  Coefficient  Atom+Function  
  ----- ------------  ---------------      ----- ------------  ---------------
   123      1.134118  23 H  s                42      1.026527   5 C  s         
    87     -0.832852  10 C  s                15      0.811356   2 C  s         
    51     -0.708556   6 C  s                90     -0.659648  10 C  pz        
    78     -0.646483   9 C  s                96      0.639689  11 C  s         
     7     -0.572570   1 C  px              133      0.574157  28 H  s         
 
 Vector   62  Occ=0.000000D+00  E= 2.575974D-01
              MO Center=  6.5D-01, -4.2D-02,  2.1D-01, r^2= 9.2D+00
   Bfn.  Coefficient  Atom+Function         Bfn.  Coefficient  Atom+Function  
  ----- ------------  ---------------      ----- ------------  ---------------
    42      1.458102   5 C  s               107     -1.230233  15 H  s         
    24      1.030306   3 C  s               139     -0.897977  31 H  s         
    33     -0.882362   4 C  s                87     -0.849923  10 C  s         
    78      0.839599   9 C  s                96      0.758850  11 C  s         
    53     -0.725793   6 C  py              109      0.663429  16 H  s         
 
 Vector   63  Occ=0.000000D+00  E= 2.609681D-01
              MO Center= -2.0D-01, -6.6D-01, -3.6D-01, r^2= 9.4D+00
   Bfn.  Coefficient  Atom+Function         Bfn.  Coefficient  Atom+Function  
  ----- ------------  ---------------      ----- ------------  ---------------
    51      1.863110   6 C  s                87     -1.308884  10 C  s         
     6     -1.188939   1 C  s               101      0.917210  12 H  s         
    42     -0.827036   5 C  s                78      0.711075   9 C  s         
   135     -0.694173  29 H  s                17     -0.681591   2 C  py        
   139      0.657193  31 H  s               117     -0.625871  20 H  s         
 
 Vector   64  Occ=0.000000D+00  E= 2.766559D-01
              MO Center= -3.8D-01, -9.8D-01, -2.2D-01, r^2= 9.0D+00
   Bfn.  Coefficient  Atom+Function         Bfn.  Coefficient  Atom+Function  
  ----- ------------  ---------------      ----- ------------  ---------------
   139      1.379886  31 H  s               131     -1.021985  27 H  s         
    42      0.967705   5 C  s                24     -0.925759   3 C  s         
    15      0.817566   2 C  s                80      0.766291   9 C  py        
    97      0.745832  11 C  px               51     -0.728573   6 C  s         
    69     -0.708442   8 C  s               101     -0.682508  12 H  s         
 
 Vector   65  Occ=0.000000D+00  E= 2.858794D-01
              MO Center=  4.0D-01, -3.6D-01, -3.2D-01, r^2= 8.4D+00
   Bfn.  Coefficient  Atom+Function         Bfn.  Coefficient  Atom+Function  
  ----- ------------  ---------------      ----- ------------  ---------------
    24      1.681636   3 C  s                87      1.565813  10 C  s         
    78     -1.335950   9 C  s                33     -1.096612   4 C  s         
    25     -0.967114   3 C  px               54      0.855659   6 C  pz        
   117      0.839543  20 H  s                16     -0.736970   2 C  px        
     6     -0.714688   1 C  s                35      0.683148   4 C  py        
 
 Vector   66  Occ=0.000000D+00  E= 2.979053D-01
              MO Center=  6.2D-01,  1.3D+00,  2.5D-01, r^2= 7.6D+00
   Bfn.  Coefficient  Atom+Function         Bfn.  Coefficient  Atom+Function  
  ----- ------------  ---------------      ----- ------------  ---------------
    42      1.684794   5 C  s                34      1.353146   4 C  px        
    45      1.224482   5 C  pz              109     -1.053550  16 H  s         
   113      0.993962  18 H  s                24     -0.959210   3 C  s         
    15      0.941834   2 C  s                69     -0.781604   8 C  s         
    71      0.736491   8 C  py              103     -0.610791  13 H  s         
 
 Vector   67  Occ=0.000000D+00  E= 3.033007D-01
[...]
 
 Vector  118  Occ=0.000000D+00  E= 1.066948D+00
              MO Center=  9.6D-03, -2.5D+00, -3.0D-01, r^2= 6.7D+00
   Bfn.  Coefficient  Atom+Function         Bfn.  Coefficient  Atom+Function  
  ----- ------------  ---------------      ----- ------------  ---------------
   135      1.320074  29 H  s                78      1.231801   9 C  s         
   129     -1.171767  26 H  s                87     -1.066736  10 C  s         
    96     -0.956001  11 C  s                24      0.874896   3 C  s         
    33     -0.798330   4 C  s                98      0.706970  11 C  py        
   128      0.678285  26 H  s               134     -0.668488  29 H  s         
 
 Vector  119  Occ=0.000000D+00  E= 1.072430D+00
              MO Center=  4.4D-01, -1.0D+00, -3.3D-02, r^2= 8.6D+00
   Bfn.  Coefficient  Atom+Function         Bfn.  Coefficient  Atom+Function  
  ----- ------------  ---------------      ----- ------------  ---------------
    24      0.939291   3 C  s                90     -0.930337  10 C  pz        
   107     -0.885604  15 H  s               139      0.789454  31 H  s         
   131     -0.764591  27 H  s               121      0.749775  22 H  s         
   130      0.742873  27 H  s               111     -0.704758  17 H  s         
    89      0.647838  10 C  py               97      0.609000  11 C  px        
 
 Vector  120  Occ=0.000000D+00  E= 1.088552D+00
              MO Center= -5.0D-01, -6.0D-01,  2.3D-02, r^2= 8.5D+00
   Bfn.  Coefficient  Atom+Function         Bfn.  Coefficient  Atom+Function  
  ----- ------------  ---------------      ----- ------------  ---------------
     6      1.503760   1 C  s                15      1.106784   2 C  s         
    96     -1.014663  11 C  s                89     -1.004261  10 C  py        
    24     -0.950264   3 C  s               139      0.933976  31 H  s         
   101     -0.920371  12 H  s                69     -0.837564   8 C  s         
    51     -0.833003   6 C  s                 9     -0.769380   1 C  pz        
 
 Vector  121  Occ=0.000000D+00  E= 1.119887D+00
              MO Center=  9.6D-01, -3.6D-01, -9.2D-01, r^2= 6.2D+00
   Bfn.  Coefficient  Atom+Function         Bfn.  Coefficient  Atom+Function  
  ----- ------------  ---------------      ----- ------------  ---------------
    24      1.981530   3 C  s               105     -1.909749  14 H  s         
   131      1.829076  27 H  s                78     -1.611381   9 C  s         
    45     -0.926438   5 C  pz               42     -0.899063   5 C  s         
    17      0.806559   2 C  py               81      0.790633   9 C  pz        
    89      0.759914  10 C  py                9     -0.744114   1 C  pz        
 
 Vector  122  Occ=0.000000D+00  E= 1.152180D+00
              MO Center=  1.2D-01, -3.8D-01, -2.2D-01, r^2= 8.9D+00
   Bfn.  Coefficient  Atom+Function         Bfn.  Coefficient  Atom+Function  
  ----- ------------  ---------------      ----- ------------  ---------------
    96      2.293629  11 C  s                24      2.275673   3 C  s         
    88      1.640446  10 C  px               33     -1.597343   4 C  s         
    26      1.384845   3 C  py               45      1.179138   5 C  pz        
   101     -1.095884  12 H  s                 6      1.055646   1 C  s         
     9     -0.985188   1 C  pz               16     -0.945860   2 C  px        
 
 Vector  123  Occ=0.000000D+00  E= 1.196912D+00
              MO Center= -3.4D-02,  9.2D-04,  5.2D-02, r^2= 8.4D+00
   Bfn.  Coefficient  Atom+Function         Bfn.  Coefficient  Atom+Function  
  ----- ------------  ---------------      ----- ------------  ---------------
    33      1.753596   4 C  s                 9      1.636375   1 C  pz        
    53     -1.600215   6 C  py                8     -1.566522   1 C  py        
    16      1.409720   2 C  px               42      1.347849   5 C  s         
    89     -1.305092  10 C  py                6      1.239734   1 C  s         
    34      1.145260   4 C  px               24     -1.127063   3 C  s         
 
 Vector  124  Occ=0.000000D+00  E= 1.206287D+00
              MO Center= -2.8D-01, -4.9D-01,  1.7D-01, r^2= 6.8D+00
   Bfn.  Coefficient  Atom+Function         Bfn.  Coefficient  Atom+Function  
  ----- ------------  ---------------      ----- ------------  ---------------
     6      2.911026   1 C  s                17     -1.945069   2 C  py        
    45      1.558565   5 C  pz               78     -1.557392   9 C  s         
    33     -1.471219   4 C  s                90     -1.440844  10 C  pz        
    52      1.423182   6 C  px               16      1.375820   2 C  px        
     8      1.277492   1 C  py               88     -1.244371  10 C  px        
 
 Vector  125  Occ=0.000000D+00  E= 1.241040D+00
              MO Center= -9.4D-01,  4.3D-01,  1.5D-01, r^2= 7.2D+00
   Bfn.  Coefficient  Atom+Function         Bfn.  Coefficient  Atom+Function  
  ----- ------------  ---------------      ----- ------------  ---------------
    69      1.997446   8 C  s                51      1.244120   6 C  s         
    33     -1.065779   4 C  s                35     -1.051160   4 C  py        
    87     -0.977910  10 C  s                15      0.931651   2 C  s         
    24     -0.921874   3 C  s               119      0.881420  21 H  s         
    61      0.853385   7 O  px               65     -0.856485   8 C  s         
 
 Vector  126  Occ=0.000000D+00  E= 1.256868D+00
              MO Center= -5.6D-01,  9.9D-03,  1.3D-01, r^2= 6.6D+00
   Bfn.  Coefficient  Atom+Function         Bfn.  Coefficient  Atom+Function  
  ----- ------------  ---------------      ----- ------------  ---------------
    15      2.811111   2 C  s                78      1.913517   9 C  s         
    17      1.593118   2 C  py               90      1.453007  10 C  pz        
    18     -1.313473   2 C  pz               69     -1.293811   8 C  s         
     9     -1.188788   1 C  pz                7     -1.136848   1 C  px        
    24     -1.092586   3 C  s                35      0.940024   4 C  py        
 
 Vector  127  Occ=0.000000D+00  E= 1.269731D+00
              MO Center= -5.8D-01,  9.8D-01,  6.2D-02, r^2= 6.1D+00
   Bfn.  Coefficient  Atom+Function         Bfn.  Coefficient  Atom+Function  
  ----- ------------  ---------------      ----- ------------  ---------------
    69      2.869079   8 C  s                 6     -2.445066   1 C  s         
    78      1.452013   9 C  s                18     -1.229716   2 C  pz        
    24     -1.208152   3 C  s                65     -1.045436   8 C  s         
    33      1.039770   4 C  s                 2      1.019534   1 C  s         
    90      1.010071  10 C  pz               44     -0.878180   5 C  py        
 
 Vector  128  Occ=0.000000D+00  E= 1.319775D+00
              MO Center=  4.5D-02,  2.2D-01,  2.2D-02, r^2= 7.7D+00
   Bfn.  Coefficient  Atom+Function         Bfn.  Coefficient  Atom+Function  
  ----- ------------  ---------------      ----- ------------  ---------------
    33      1.818141   4 C  s                78     -1.753805   9 C  s         
    51     -1.704374   6 C  s                26     -1.631679   3 C  py        
     9     -1.471392   1 C  pz               44     -1.465893   5 C  py        
    53      1.120710   6 C  py               89     -1.121230  10 C  py        
    34      0.900038   4 C  px               62     -0.822875   7 O  py        
 
 Vector  129  Occ=0.000000D+00  E= 1.368740D+00
              MO Center= -2.0D-01, -7.4D-01,  3.0D-01, r^2= 6.7D+00
   Bfn.  Coefficient  Atom+Function         Bfn.  Coefficient  Atom+Function  
  ----- ------------  ---------------      ----- ------------  ---------------
    96      2.656001  11 C  s                15     -1.626457   2 C  s         
    24     -1.517495   3 C  s                43     -1.432900   5 C  px        
    17      1.329530   2 C  py               90     -1.328582  10 C  pz        
    34      1.256038   4 C  px               87      1.258123  10 C  s         
    89      1.176880  10 C  py               92     -1.122955  11 C  s         
 
 Vector  130  Occ=0.000000D+00  E= 1.419408D+00
              MO Center=  5.5D-01, -5.9D-01,  2.0D-01, r^2= 5.8D+00
   Bfn.  Coefficient  Atom+Function         Bfn.  Coefficient  Atom+Function  
  ----- ------------  ---------------      ----- ------------  ---------------
    18      2.604589   2 C  pz               78      1.537970   9 C  s         
    27     -1.507837   3 C  pz               53      1.149398   6 C  py        
    15     -1.120402   2 C  s                 9     -1.109584   1 C  pz        
     6      1.090105   1 C  s                25     -1.012123   3 C  px        
    36      1.009887   4 C  pz               43      0.993056   5 C  px        
 
 Vector  131  Occ=0.000000D+00  E= 1.474449D+00
              MO Center=  1.8D-02, -9.3D-01, -2.9D-01, r^2= 7.3D+00
   Bfn.  Coefficient  Atom+Function         Bfn.  Coefficient  Atom+Function  
  ----- ------------  ---------------      ----- ------------  ---------------
    78      3.566600   9 C  s                96     -3.464875  11 C  s         
    51     -2.348249   6 C  s                88     -1.948446  10 C  px        
    43     -1.414517   5 C  px               74     -1.321609   9 C  s         
    90      1.227137  10 C  pz               42      1.194196   5 C  s         
    54     -1.196729   6 C  pz                8      1.157167   1 C  py        
 
 Vector  132  Occ=0.000000D+00  E= 1.509112D+00
              MO Center= -9.6D-01, -5.7D-01, -7.5D-02, r^2= 5.8D+00
   Bfn.  Coefficient  Atom+Function         Bfn.  Coefficient  Atom+Function  
  ----- ------------  ---------------      ----- ------------  ---------------
     8      2.592485   1 C  py               87     -2.485370  10 C  s         
    96      2.447305  11 C  s                51     -2.209094   6 C  s         
    62     -1.653191   7 O  py               15      1.597927   2 C  s         
    17     -1.341423   2 C  py               45     -1.192830   5 C  pz        
     9      1.065161   1 C  pz              139     -0.971186  31 H  s         
 
 Vector  133  Occ=0.000000D+00  E= 1.571116D+00
              MO Center=  1.8D-01,  2.8D-01,  5.5D-02, r^2= 5.9D+00
   Bfn.  Coefficient  Atom+Function         Bfn.  Coefficient  Atom+Function  
  ----- ------------  ---------------      ----- ------------  ---------------
    15      3.719768   2 C  s                33      3.531439   4 C  s         
    51     -3.531954   6 C  s                96     -2.094864  11 C  s         
    17     -1.991903   2 C  py               89     -1.599493  10 C  py        
    47      1.352765   6 C  s                29     -1.286239   4 C  s         
    11     -1.276089   2 C  s                 8      1.257088   1 C  py        
 
 Vector  134  Occ=0.000000D+00  E= 1.637349D+00
              MO Center= -7.3D-02,  8.1D-01, -1.1D-01, r^2= 5.7D+00
   Bfn.  Coefficient  Atom+Function         Bfn.  Coefficient  Atom+Function  
  ----- ------------  ---------------      ----- ------------  ---------------
    24     -3.883479   3 C  s                 6      3.797479   1 C  s         
    69      3.659417   8 C  s                51     -3.389632   6 C  s         
    78     -1.477512   9 C  s                15      1.461164   2 C  s         
    16      1.293405   2 C  px               20      1.244159   3 C  s         
     2     -1.223860   1 C  s                44     -1.164246   5 C  py        
 
 Vector  135  Occ=0.000000D+00  E= 1.682118D+00
              MO Center=  3.8D-01,  9.6D-01, -1.2D-01, r^2= 6.1D+00
   Bfn.  Coefficient  Atom+Function         Bfn.  Coefficient  Atom+Function  
  ----- ------------  ---------------      ----- ------------  ---------------
    42      4.938337   5 C  s                24     -3.656489   3 C  s         
    69     -2.975375   8 C  s                78     -2.137717   9 C  s         
    87      1.700748  10 C  s                38     -1.572727   5 C  s         
    51     -1.403726   6 C  s                20      1.353220   3 C  s         
     6      1.226399   1 C  s                25      1.224256   3 C  px        
 
 Vector  136  Occ=0.000000D+00  E= 1.817499D+00
              MO Center= -2.7D-01, -6.7D-01,  2.5D-01, r^2= 6.1D+00
   Bfn.  Coefficient  Atom+Function         Bfn.  Coefficient  Atom+Function  
  ----- ------------  ---------------      ----- ------------  ---------------
    87      6.719135  10 C  s                96     -3.387003  11 C  s         
    78     -2.648807   9 C  s                33     -2.242230   4 C  s         
    42     -1.999288   5 C  s                83     -1.892066  10 C  s         
    24      1.831616   3 C  s                69      1.597682   8 C  s         
    16     -1.417030   2 C  px               17      1.351098   2 C  py        
 
 Vector  137  Occ=0.000000D+00  E= 1.965218D+00
              MO Center=  1.9D-02,  2.1D-02,  3.1D-01, r^2= 5.4D+00
   Bfn.  Coefficient  Atom+Function         Bfn.  Coefficient  Atom+Function  
  ----- ------------  ---------------      ----- ------------  ---------------
    42      5.240117   5 C  s                87     -5.043376  10 C  s         
    33     -4.952188   4 C  s                15      4.846339   2 C  s         
    78      1.849797   9 C  s                96      1.647475  11 C  s         
    34      1.634294   4 C  px               51     -1.493522   6 C  s         
    83      1.478952  10 C  s                11     -1.437780   2 C  s         
 
 Vector  138  Occ=0.000000D+00  E= 2.144801D+00
              MO Center=  5.1D-01,  5.8D-01, -4.0D-01, r^2= 5.1D+00
   Bfn.  Coefficient  Atom+Function         Bfn.  Coefficient  Atom+Function  
  ----- ------------  ---------------      ----- ------------  ---------------
    15      8.225272   2 C  s                51      7.092755   6 C  s         
    24     -6.855441   3 C  s                42     -6.576328   5 C  s         
    33      5.904411   4 C  s                 6     -5.418133   1 C  s         
    87     -4.523245  10 C  s                25      2.150664   3 C  px        
    47     -1.723195   6 C  s                18     -1.689060   2 C  pz        
 
 Vector  139  Occ=0.000000D+00  E= 2.190774D+00
              MO Center= -7.6D-01,  2.3D-01, -1.7D-01, r^2= 4.1D+00
   Bfn.  Coefficient  Atom+Function         Bfn.  Coefficient  Atom+Function  
  ----- ------------  ---------------      ----- ------------  ---------------
     6      9.079350   1 C  s                15     -3.986582   2 C  s         
    60     -3.759772   7 O  s                42     -3.552102   5 C  s         
    87     -3.111067  10 C  s                33      2.916409   4 C  s         
    17     -2.560031   2 C  py                2     -2.060610   1 C  s         
    51     -2.040491   6 C  s                 9      1.728850   1 C  pz        
 

 center of mass
 --------------
 x =  -0.03203851 y =   0.00706238 z =  -0.00264595

 moments of inertia (a.u.)
 ------------------
        2322.571320819894           0.000000000000           0.000000000000
           0.000000000000         967.458427940142           0.000000000001
           0.000000000000           0.000000000001        2706.449191063385
 
     Multipole analysis of the density
     ---------------------------------
 
     L   x y z        total         alpha         beta         nuclear
     -   - - -        -----         -----         ----         -------
     0   0 0 0     -0.000000    -44.000000    -44.000000     88.000000
 
     1   1 0 0      0.512137      0.256069      0.256069      0.000000
     1   0 1 0      0.763867      0.381934      0.381934     -0.000000
     1   0 0 1     -0.137505     -0.068753     -0.068753     -0.000000
 
     2   2 0 0    -56.115378   -229.438352   -229.438352    402.761325
     2   1 1 0     -2.861300      1.382106      1.382106     -5.625511
     2   1 0 1      0.077369      1.595884      1.595884     -3.114399
     2   0 2 0    -52.612650   -635.911667   -635.911667   1219.210683
     2   0 1 1     -0.147342     -2.569425     -2.569425      4.991507
     2   0 0 2    -53.081407   -125.981875   -125.981875    198.882344
 

 Task  times  cpu:      124.9s     wall:       31.7s
 
 
                                NWChem Input Module
                                -------------------
 
 
 Summary of allocated global arrays
-----------------------------------
  No active global arrays



                         GA Statistics for process    0
                         ------------------------------

       create   destroy   get      put      acc     scatter   gather  read&inc
calls:  144      144     1.82e+05 3722     1.41e+05    0        0     1444     
number of processes/call 3.59e+00 2.27e+01 3.22e+00 0.00e+00 0.00e+00
bytes total:             6.32e+07 6.72e+06 3.82e+07 0.00e+00 0.00e+00 1.16e+04
bytes remote:            4.18e+07 2.42e+06 2.63e+07 0.00e+00 0.00e+00 0.00e+00
Max memory consumed for GA by this process: 1682176 bytes
 
MA_summarize_allocated_blocks: starting scan ...
heap block 'gridpts', handle 114, address 0x127d3300:
	type of elements:		double precision
	number of elements:		6291456
	address of client space:	0x127d3380
	index for client space:		17968253
	total number of bytes:		50331784
MA_summarize_allocated_blocks: scan completed: 1 heap block, 0 stack blocks
MA usage statistics:

	allocation statistics:
					      heap	     stack
					      ----	     -----
	current number of blocks	         1	         0
	maximum number of blocks	        21	        53
	current total bytes		  50331784	         0
	maximum total bytes		  56037280	  22525256
	maximum total K-bytes		     56038	     22526
	maximum total M-bytes		        57	        23
 
 
                                     CITATION
                                     --------
                Please cite the following reference when publishing
                           results obtained with NWChem:
 
                 M. Valiev, E.J. Bylaska, N. Govind, K. Kowalski,
              T.P. Straatsma, H.J.J. van Dam, D. Wang, J. Nieplocha,
                        E. Apra, T.L. Windus, W.A. de Jong
                 "NWChem: a comprehensive and scalable open-source
                  solution for large scale molecular simulations"
                      Comput. Phys. Commun. 181, 1477 (2010)
                           doi:10.1016/j.cpc.2010.04.018
 
                                      AUTHORS
                                      -------
          E. Apra, E. J. Bylaska, W. A. de Jong, N. Govind, K. Kowalski,
       T. P. Straatsma, M. Valiev, H. J. J. van Dam, D. Wang, T. L. Windus,
        J. Hammond, J. Autschbach, K. Bhaskaran-Nair, J. Brabec, K. Lopata,
    S. A. Fischer, S. Krishnamoorthy, M. Jacquelin, W. Ma, M. Klemm, O. Villa,
      Y. Chen, V. Anisimov, F. Aquino, S. Hirata, M. T. Hackler, V. Konjkov,
            D. Mejia-Rodriguez, T. Risthaus, M. Malagoli, A. Marenich,
   A. Otero-de-la-Roza, J. Mullin, P. Nichols, R. Peverati, J. Pittner, Y. Zhao,
        P.-D. Fan, A. Fonari, M. J. Williamson, R. J. Harrison, J. R. Rehr,
      M. Dupuis, D. Silverstein, D. M. A. Smith, J. Nieplocha, V. Tipparaju,
    M. Krishnan, B. E. Van Kuiken, A. Vazquez-Mayagoitia, L. Jensen, M. Swart,
      Q. Wu, T. Van Voorhis, A. A. Auer, M. Nooijen, L. D. Crosby, E. Brown,
      G. Cisneros, G. I. Fann, H. Fruchtl, J. Garza, K. Hirao, R. A. Kendall,
      J. A. Nichols, K. Tsemekhman, K. Wolinski, J. Anchell, D. E. Bernholdt,
      P. Borowski, T. Clark, D. Clerc, H. Dachsel, M. J. O. Deegan, K. Dyall,
    D. Elwood, E. Glendening, M. Gutowski, A. C. Hess, J. Jaffe, B. G. Johnson,
     J. Ju, R. Kobayashi, R. Kutteh, Z. Lin, R. Littlefield, X. Long, B. Meng,
      T. Nakajima, S. Niu, L. Pollack, M. Rosing, K. Glaesemann, G. Sandrone,
      M. Stave, H. Taylor, G. Thomas, J. H. van Lenthe, A. T. Wong, Z. Zhang.

 Total times  cpu:      126.3s     wall:       32.0s
