 argument  1 = Frag-00000001.nw
  NWChem w/ OpenMP: maximum threads =    7
                                         
                                         
 
 
              Northwest Computational Chemistry Package (NWChem) 6.8
              ------------------------------------------------------
 
 
                    Environmental Molecular Sciences Laboratory
                       Pacific Northwest National Laboratory
                                Richland, WA 99352
 
                              Copyright (c) 1994-2018
                       Pacific Northwest National Laboratory
                            Battelle Memorial Institute
 
             NWChem is an open-source computational chemistry package
                        distributed under the terms of the
                      Educational Community License (ECL) 2.0
             A copy of the license is included with this distribution
                              in the LICENSE.TXT file
 
                                  ACKNOWLEDGMENT
                                  --------------

            This software and its documentation were developed at the
            EMSL at Pacific Northwest National Laboratory, a multiprogram
            national laboratory, operated for the U.S. Department of Energy
            by Battelle under Contract Number DE-AC05-76RL01830. Support
            for this work was provided by the Department of Energy Office
            of Biological and Environmental Research, Office of Basic
            Energy Sciences, and the Office of Advanced Scientific Computing.


           Job information
           ---------------

    hostname        = i10r3n17
    program         = /public/software/apps/nwchem-DCU/6.8.1/hpcx-2.4.1-intel2017/bin/LINUX64/nwchem
    date            = Sat Mar 19 20:03:27 2022

    compiled        = Wed_Feb_19_20:38:21_2020
    source          = /public/software/apps/nwchem-DCU/6.8.1/hpcx-2.4.1-intel2017
    nwchem branch   = Development
    nwchem revision = nwchem_on_git-947-g0b42727
    ga revision     = 5.7.0
    use scalapack   = F
    input           = Frag-00000001.nw
    prefix          = LoadBalanceApplication.
    data base       = ./LoadBalanceApplication.db
    status          = startup
    nproc           =        4
    time left       =     -1s



           Memory information
           ------------------

    heap     =   13107200 doubles =    100.0 Mbytes
    stack    =   13107197 doubles =    100.0 Mbytes
    global   =   26214400 doubles =    200.0 Mbytes (distinct from heap & stack)
    total    =   52428797 doubles =    400.0 Mbytes
    verify   = yes
    hardfail = no 


           Directory information
           ---------------------
 
  0 permanent = .
  0 scratch   = .
 
 
 
 
                                NWChem Input Module
                                -------------------
 
 
                                   Frag-00000001
                                   -------------

 Scaling coordinates for geometry "geometry" by  1.889725989
 (inverse scale =  0.529177249)

 C1  symmetry detected

          ------
          auto-z
          ------
  no constraints, skipping   0.000000000000000E+000
  no constraints, skipping   0.000000000000000E+000
 
 
                             Geometry "geometry" -> ""
                             -------------------------
 
 Output coordinates in angstroms (scale by  1.889725989 to convert to a.u.)
 
  No.       Tag          Charge          X              Y              Z
 ---- ---------------- ---------- -------------- -------------- --------------
    1 C                    6.0000     3.44929961     2.50119812    -0.59555024
    2 C                    6.0000    -3.26157380     2.87272496    -0.29546362
    3 C                    6.0000     2.55707607     2.09974408    -1.55545066
    4 C                    6.0000     3.25634969     2.19893470     0.74519439
    5 C                    6.0000    -2.45699274     3.06391462     0.80258776
    6 C                    6.0000    -3.03764841     1.84166588    -1.17156041
    7 C                    6.0000     1.43199632     1.37718025    -1.22836798
    8 C                    6.0000     2.12403224     1.47674162     1.03812332
    9 C                    6.0000    -1.40940067     2.18977808     1.00495911
   10 C                    6.0000    -1.98825748     0.99070623    -0.94012714
   11 C                    6.0000    -0.83494825    -2.76274393     1.30197115
   12 C                    6.0000    -1.21013443    -2.92713157    -1.08428157
   13 C                    6.0000     0.18810839    -3.80426025     0.88296175
   14 C                    6.0000     0.21416833    -3.35340960    -1.41548198
   15 C                    6.0000     1.26885312    -1.82099521     0.06935273
   16 C                    6.0000    -1.13632041    -1.92589930     0.07055453
   17 C                    6.0000     1.21746560     1.06306217     0.09140677
   18 C                    6.0000    -1.15151485     1.12574091     0.13234590
   19 C                    6.0000     0.03461308    -1.01332329    -0.27460601
   20 C                    6.0000    -0.00617975     0.27470801     0.46088587
   21 N                    7.0000     0.98698126    -3.24327708    -0.18602844
   22 O                    8.0000     0.02999918     0.09378499     1.83385599
   23 H                    1.0000     4.35425633     3.07976555    -0.83515210
   24 H                    1.0000    -4.07932079     3.57184205    -0.43624411
   25 H                    1.0000     2.73553797     2.35220890    -2.59686069
   26 H                    1.0000     3.94301734     2.50436966     1.51340726
   27 H                    1.0000    -2.65861399     3.89540925     1.48414008
   28 H                    1.0000    -3.65340718     1.67194273    -2.03639229
   29 H                    1.0000     0.71932668     1.05633260    -2.00669745
   30 H                    1.0000     1.97238861     1.23738030     2.08968614
   31 H                    1.0000    -0.79823266     2.37229941     1.87810551
   32 H                    1.0000    -1.79642736     0.17524327    -1.62133368
   33 H                    1.0000    -0.41820428    -2.19241218     2.12630795
   34 H                    1.0000    -1.78905385    -3.21239075     1.61955931
   35 H                    1.0000    -1.75270582    -3.80698351    -0.69355553
   36 H                    1.0000    -1.73513050    -2.50063129    -1.95716108
   37 H                    1.0000    -0.36201126    -4.68047548     0.51535159
   38 H                    1.0000     0.88239674    -4.05636979     1.71474385
   39 H                    1.0000     0.65205736    -2.73480775    -2.21597867
   40 H                    1.0000     0.24907661    -4.41175605    -1.73117362
   41 H                    1.0000     2.12264023    -1.57423655    -0.59701558
   42 H                    1.0000     1.60199176    -1.67277961     1.10085881
   43 H                    1.0000    -2.08488587    -1.37978275     0.16401188
   44 H                    1.0000     0.07549356    -0.83883977    -1.36491664
   45 H                    1.0000    -0.82300186     0.28731249     2.28093800
 
      Atomic Mass 
      ----------- 
 
      C                 12.000000
      N                 14.003070
      O                 15.994910
      H                  1.007825
 

 Effective nuclear repulsion energy (a.u.)    1895.1042444076

            Nuclear Dipole moment (a.u.) 
            ----------------------------
        X                 Y               Z
 ---------------- ---------------- ----------------
     0.0000000000    -0.0000000000    -0.0000000000
 


                                Z-matrix (autoz)
                                -------- 

 Units are Angstrom for bonds and degrees for angles
 
      Type          Name      I     J     K     L     M      Value
      ----------- --------  ----- ----- ----- ----- ----- ----------
    1 Stretch                  1     3                       1.37063
    2 Stretch                  1     4                       1.38787
    3 Stretch                  1    23                       1.10050
    4 Stretch                  2     5                       1.37463
    5 Stretch                  2     6                       1.37141
    6 Stretch                  2    24                       1.08503
    7 Stretch                  3     7                       1.37655
    8 Stretch                  3    25                       1.08633
    9 Stretch                  4     8                       1.37460
   10 Stretch                  4    26                       1.07469
   11 Stretch                  5     9                       1.37932
   12 Stretch                  5    27                       1.09387
   13 Stretch                  6    10                       1.37074
   14 Stretch                  6    28                       1.07513
   15 Stretch                  7    17                       1.37350
   16 Stretch                  7    29                       1.10301
   17 Stretch                  8    17                       1.37451
   18 Stretch                  8    30                       1.08907
   19 Stretch                  9    18                       1.40005
   20 Stretch                  9    31                       1.08131
   21 Stretch                 10    18                       1.36696
   22 Stretch                 10    32                       1.07973
   23 Stretch                 11    13                       1.51887
   24 Stretch                 11    16                       1.51905
   25 Stretch                 11    33                       1.08558
   26 Stretch                 11    34                       1.10153
   27 Stretch                 12    14                       1.52317
   28 Stretch                 12    16                       1.53022
   29 Stretch                 12    35                       1.10507
   30 Stretch                 12    36                       1.10428
   31 Stretch                 13    21                       1.44763
   32 Stretch                 13    37                       1.09796
   33 Stretch                 13    38                       1.11241
   34 Stretch                 14    21                       1.45634
   35 Stretch                 14    39                       1.10237
   36 Stretch                 14    40                       1.10498
   37 Stretch                 15    19                       1.51459
   38 Stretch                 15    21                       1.47226
   39 Stretch                 15    41                       1.11081
   40 Stretch                 15    42                       1.09405
   41 Stretch                 16    19                       1.52414
   42 Stretch                 16    43                       1.09852
   43 Stretch                 17    20                       1.50177
   44 Stretch                 18    20                       1.46424
   45 Stretch                 19    20                       1.48379
   46 Stretch                 19    44                       1.10494
   47 Stretch                 20    22                       1.38531
   48 Stretch                 22    45                       0.98232
   49 Bend                     1     3     7               121.29049
   50 Bend                     1     3    25               119.75972
   51 Bend                     1     4     8               115.77326
   52 Bend                     1     4    26               122.67164
   53 Bend                     2     5     9               118.26781
   54 Bend                     2     5    27               119.70552
   55 Bend                     2     6    10               118.93907
   56 Bend                     2     6    28               122.61847
   57 Bend                     3     1     4               121.48416
   58 Bend                     3     1    23               122.46605
   59 Bend                     3     7    17               118.42595
   60 Bend                     3     7    29               120.87050
   61 Bend                     4     1    23               116.04966
   62 Bend                     4     8    17               123.68687
   63 Bend                     4     8    30               115.84475
   64 Bend                     5     2     6               121.28465
   65 Bend                     5     2    24               117.07448
   66 Bend                     5     9    18               122.01218
   67 Bend                     5     9    31               116.15355
   68 Bend                     6     2    24               121.64085
   69 Bend                     6    10    18               122.66728
   70 Bend                     6    10    32               119.89115
   71 Bend                     7     3    25               118.94975
   72 Bend                     7    17     8               119.33918
   73 Bend                     7    17    20               118.92906
   74 Bend                     8     4    26               121.55506
   75 Bend                     8    17    20               121.73175
   76 Bend                     9     5    27               122.02651
   77 Bend                     9    18    10               116.82886
   78 Bend                     9    18    20               116.48445
   79 Bend                    10     6    28               118.44246
   80 Bend                    10    18    20               126.68596
   81 Bend                    11    13    21               108.04054
   82 Bend                    11    13    37               107.58449
   83 Bend                    11    13    38               111.68616
   84 Bend                    11    16    12               105.12341
   85 Bend                    11    16    19               111.16233
   86 Bend                    11    16    43               112.09962
   87 Bend                    12    14    21               106.94661
   88 Bend                    12    14    39               111.85716
   89 Bend                    12    14    40               111.08276
   90 Bend                    12    16    19               104.94640
   91 Bend                    12    16    43               110.35484
   92 Bend                    13    11    16               106.72390
   93 Bend                    13    11    33               108.12928
   94 Bend                    13    11    34               112.52235
   95 Bend                    13    21    14               107.53279
   96 Bend                    13    21    15               110.60510
   97 Bend                    14    12    16               107.58439
   98 Bend                    14    12    35               108.25038
   99 Bend                    14    12    36               112.38152
  100 Bend                    14    21    15               108.72884
  101 Bend                    15    19    16               104.79344
  102 Bend                    15    19    20               111.88478
  103 Bend                    15    19    44               106.14973
  104 Bend                    16    11    33               113.72218
  105 Bend                    16    11    34               106.66401
  106 Bend                    16    12    35               106.12896
  107 Bend                    16    12    36               111.51633
  108 Bend                    16    19    20               112.72930
  109 Bend                    16    19    44               110.26952
  110 Bend                    17     7    29               120.70352
  111 Bend                    17     8    30               120.46833
  112 Bend                    17    20    18               106.08314
  113 Bend                    17    20    19               108.13987
  114 Bend                    17    20    22               106.92478
  115 Bend                    18     9    31               121.83422
  116 Bend                    18    10    32               117.44148
  117 Bend                    18    20    19               114.50779
  118 Bend                    18    20    22               108.58508
  119 Bend                    19    15    21               108.64769
  120 Bend                    19    15    41               111.81758
  121 Bend                    19    15    42               112.95492
  122 Bend                    19    16    43               112.64312
  123 Bend                    19    20    22               112.15909
  124 Bend                    20    19    44               110.67459
  125 Bend                    20    22    45               113.74505
  126 Bend                    21    13    37               109.78622
  127 Bend                    21    13    38               107.19073
  128 Bend                    21    14    39               111.08827
  129 Bend                    21    14    40               107.26891
  130 Bend                    21    15    41               104.93360
  131 Bend                    21    15    42               110.65361
  132 Bend                    33    11    34               109.14970
  133 Bend                    35    12    36               110.70578
  134 Bend                    37    13    38               112.46990
  135 Bend                    39    14    40               108.50959
  136 Bend                    41    15    42               107.54538
  137 Torsion                  1     3     7    17           0.02365
  138 Torsion                  1     3     7    29        -179.90649
  139 Torsion                  1     4     8    17          -0.02314
  140 Torsion                  1     4     8    30         179.89529
  141 Torsion                  2     5     9    18          -0.13633
  142 Torsion                  2     5     9    31         179.94575
  143 Torsion                  2     6    10    18           0.04289
  144 Torsion                  2     6    10    32        -179.84867
  145 Torsion                  3     1     4     8           0.09613
  146 Torsion                  3     1     4    26        -179.96928
  147 Torsion                  3     7    17     8           0.04806
  148 Torsion                  3     7    17    20        -179.97919
  149 Torsion                  4     1     3     7          -0.09944
  150 Torsion                  4     1     3    25         179.97202
  151 Torsion                  4     8    17     7          -0.04867
  152 Torsion                  4     8    17    20         179.97937
  153 Torsion                  5     2     6    10          -0.03952
  154 Torsion                  5     2     6    28         179.96471
  155 Torsion                  5     9    18    10           0.13707
  156 Torsion                  5     9    18    20         179.84690
  157 Torsion                  6     2     5     9           0.08533
  158 Torsion                  6     2     5    27         179.94413
  159 Torsion                  6    10    18     9          -0.08913
  160 Torsion                  6    10    18    20        -179.76526
  161 Torsion                  7     3     1    23        -179.96437
  162 Torsion                  7    17     8    30        -179.96350
  163 Torsion                  7    17    20    18         -64.62741
  164 Torsion                  7    17    20    19          58.65395
  165 Torsion                  7    17    20    22         179.62260
  166 Torsion                  8     4     1    23         179.96929
  167 Torsion                  8    17     7    29         179.97833
  168 Torsion                  8    17    20    18         115.34465
  169 Torsion                  8    17    20    19        -121.37398
  170 Torsion                  8    17    20    22          -0.40533
  171 Torsion                  9     5     2    24        -179.96356
  172 Torsion                  9    18    10    32         179.80495
  173 Torsion                  9    18    20    17         -75.24216
  174 Torsion                  9    18    20    19         165.57859
  175 Torsion                  9    18    20    22          39.37725
  176 Torsion                 10     6     2    24        -179.98839
  177 Torsion                 10    18     9    31        -179.94966
  178 Torsion                 10    18    20    17         104.43495
  179 Torsion                 10    18    20    19         -14.74430
  180 Torsion                 10    18    20    22        -140.94564
  181 Torsion                 11    13    21    14         -79.45175
  182 Torsion                 11    13    21    15          39.13756
  183 Torsion                 11    16    12    14         -74.73783
  184 Torsion                 11    16    12    35          40.96027
  185 Torsion                 11    16    12    36         161.59970
  186 Torsion                 11    16    19    15          35.75399
  187 Torsion                 11    16    19    20         -86.15758
  188 Torsion                 11    16    19    44         149.59534
  189 Torsion                 12    14    21    13          44.01669
  190 Torsion                 12    14    21    15         -75.77306
  191 Torsion                 12    16    11    13          40.83953
  192 Torsion                 12    16    11    33         159.97828
  193 Torsion                 12    16    11    34         -79.65353
  194 Torsion                 12    16    19    15         -77.38124
  195 Torsion                 12    16    19    20         160.70719
  196 Torsion                 12    16    19    44          36.46012
  197 Torsion                 13    11    16    19         -72.18411
  198 Torsion                 13    11    16    43         160.74839
  199 Torsion                 13    21    14    39         166.33601
  200 Torsion                 13    21    14    40         -75.22684
  201 Torsion                 13    21    15    19         -77.76953
  202 Torsion                 13    21    15    41         162.49741
  203 Torsion                 13    21    15    42          46.77815
  204 Torsion                 14    12    16    19          42.59788
  205 Torsion                 14    12    16    43         164.20202
  206 Torsion                 14    21    13    37          37.60282
  207 Torsion                 14    21    13    38         160.04644
  208 Torsion                 14    21    15    19          40.09010
  209 Torsion                 14    21    15    41         -79.64296
  210 Torsion                 14    21    15    42         164.63779
  211 Torsion                 15    19    16    43         162.52375
  212 Torsion                 15    19    20    17          59.75108
  213 Torsion                 15    19    20    18         177.76883
  214 Torsion                 15    19    20    22         -57.90731
  215 Torsion                 15    21    13    37         156.19213
  216 Torsion                 15    21    13    38         -81.36425
  217 Torsion                 15    21    14    39          46.54626
  218 Torsion                 15    21    14    40         164.98342
  219 Torsion                 16    11    13    21          29.60617
  220 Torsion                 16    11    13    37         -88.86307
  221 Torsion                 16    11    13    38         147.25380
  222 Torsion                 16    12    14    21          28.64759
  223 Torsion                 16    12    14    39         -93.18917
  224 Torsion                 16    12    14    40         145.39570
  225 Torsion                 16    19    15    21          33.04996
  226 Torsion                 16    19    15    41         148.39433
  227 Torsion                 16    19    15    42         -90.12554
  228 Torsion                 16    19    20    17         177.56519
  229 Torsion                 16    19    20    18         -64.41706
  230 Torsion                 16    19    20    22          59.90680
  231 Torsion                 17     7     3    25         179.95276
  232 Torsion                 17     8     4    26        -179.95852
  233 Torsion                 17    20    19    44         -58.41080
  234 Torsion                 17    20    22    45         133.14704
  235 Torsion                 18     9     5    27        -179.99167
  236 Torsion                 18    10     6    28        -179.96116
  237 Torsion                 18    20    19    44          59.60695
  238 Torsion                 18    20    22    45          19.07881
  239 Torsion                 19    16    11    33          46.95463
  240 Torsion                 19    16    11    34         167.32283
  241 Torsion                 19    16    12    35         158.29598
  242 Torsion                 19    16    12    36         -81.06459
  243 Torsion                 19    20    22    45        -108.47318
  244 Torsion                 20    17     7    29          -0.04892
  245 Torsion                 20    17     8    30           0.06454
  246 Torsion                 20    18     9    31          -0.23983
  247 Torsion                 20    18    10    32           0.12881
  248 Torsion                 20    19    15    21         155.51202
  249 Torsion                 20    19    15    41         -89.14360
  250 Torsion                 20    19    15    42          32.33653
  251 Torsion                 20    19    16    43          40.61218
  252 Torsion                 21    13    11    33         -93.10412
  253 Torsion                 21    13    11    34         146.26916
  254 Torsion                 21    14    12    35         -85.64267
  255 Torsion                 21    14    12    36         151.78123
  256 Torsion                 21    15    19    44         -83.66218
  257 Torsion                 22    20    19    44        -176.06919
  258 Torsion                 23     1     3    25           0.10710
  259 Torsion                 23     1     4    26          -0.09612
  260 Torsion                 24     2     5    27          -0.10476
  261 Torsion                 24     2     6    28           0.01585
  262 Torsion                 25     3     7    29           0.02261
  263 Torsion                 26     4     8    30          -0.04009
  264 Torsion                 27     5     9    31           0.09042
  265 Torsion                 28     6    10    32           0.14727
  266 Torsion                 33    11    13    37         148.42664
  267 Torsion                 33    11    13    38          24.54351
  268 Torsion                 33    11    16    43         -80.11287
  269 Torsion                 34    11    13    37          27.79992
  270 Torsion                 34    11    13    38         -96.08321
  271 Torsion                 34    11    16    43          40.25533
  272 Torsion                 35    12    14    39         152.52057
  273 Torsion                 35    12    14    40          31.10544
  274 Torsion                 35    12    16    43         -80.09987
  275 Torsion                 36    12    14    39          29.94448
  276 Torsion                 36    12    14    40         -91.47065
  277 Torsion                 36    12    16    43          40.53955
  278 Torsion                 41    15    19    44          31.68220
  279 Torsion                 42    15    19    44         153.16233
  280 Torsion                 43    16    19    44         -83.63489
 
 
            XYZ format geometry
            -------------------
    45
 geometry
 C                     3.44929961     2.50119812    -0.59555024
 C                    -3.26157380     2.87272496    -0.29546362
 C                     2.55707607     2.09974408    -1.55545066
 C                     3.25634969     2.19893470     0.74519439
 C                    -2.45699274     3.06391462     0.80258776
 C                    -3.03764841     1.84166588    -1.17156041
 C                     1.43199632     1.37718025    -1.22836798
 C                     2.12403224     1.47674162     1.03812332
 C                    -1.40940067     2.18977808     1.00495911
 C                    -1.98825748     0.99070623    -0.94012714
 C                    -0.83494825    -2.76274393     1.30197115
 C                    -1.21013443    -2.92713157    -1.08428157
 C                     0.18810839    -3.80426025     0.88296175
 C                     0.21416833    -3.35340960    -1.41548198
 C                     1.26885312    -1.82099521     0.06935273
 C                    -1.13632041    -1.92589930     0.07055453
 C                     1.21746560     1.06306217     0.09140677
 C                    -1.15151485     1.12574091     0.13234590
 C                     0.03461308    -1.01332329    -0.27460601
 C                    -0.00617975     0.27470801     0.46088587
 N                     0.98698126    -3.24327708    -0.18602844
 O                     0.02999918     0.09378499     1.83385599
 H                     4.35425633     3.07976555    -0.83515210
 H                    -4.07932079     3.57184205    -0.43624411
 H                     2.73553797     2.35220890    -2.59686069
 H                     3.94301734     2.50436966     1.51340726
 H                    -2.65861399     3.89540925     1.48414008
 H                    -3.65340718     1.67194273    -2.03639229
 H                     0.71932668     1.05633260    -2.00669745
 H                     1.97238861     1.23738030     2.08968614
 H                    -0.79823266     2.37229941     1.87810551
 H                    -1.79642736     0.17524327    -1.62133368
 H                    -0.41820428    -2.19241218     2.12630795
 H                    -1.78905385    -3.21239075     1.61955931
 H                    -1.75270582    -3.80698351    -0.69355553
 H                    -1.73513050    -2.50063129    -1.95716108
 H                    -0.36201126    -4.68047548     0.51535159
 H                     0.88239674    -4.05636979     1.71474385
 H                     0.65205736    -2.73480775    -2.21597867
 H                     0.24907661    -4.41175605    -1.73117362
 H                     2.12264023    -1.57423655    -0.59701558
 H                     1.60199176    -1.67277961     1.10085881
 H                    -2.08488587    -1.37978275     0.16401188
 H                     0.07549356    -0.83883977    -1.36491664
 H                    -0.82300186     0.28731249     2.28093800
 
 ==============================================================================
                                internuclear distances
 ------------------------------------------------------------------------------
       center one      |      center two      | atomic units |  angstroms
 ------------------------------------------------------------------------------
    3 C                |   1 C                |     2.59012  |     1.37063
    4 C                |   1 C                |     2.62270  |     1.38787
    5 C                |   2 C                |     2.59768  |     1.37463
    6 C                |   2 C                |     2.59159  |     1.37141
    7 C                |   3 C                |     2.60130  |     1.37655
    8 C                |   4 C                |     2.59761  |     1.37460
    9 C                |   5 C                |     2.60653  |     1.37932
   10 C                |   6 C                |     2.59031  |     1.37074
   13 C                |  11 C                |     2.87025  |     1.51887
   14 C                |  12 C                |     2.87837  |     1.52317
   16 C                |  11 C                |     2.87059  |     1.51905
   16 C                |  12 C                |     2.89169  |     1.53022
   17 C                |   7 C                |     2.59554  |     1.37350
   17 C                |   8 C                |     2.59744  |     1.37451
   18 C                |   9 C                |     2.64571  |     1.40005
   18 C                |  10 C                |     2.58317  |     1.36696
   19 C                |  15 C                |     2.86216  |     1.51459
   19 C                |  16 C                |     2.88022  |     1.52414
   20 C                |  17 C                |     2.83794  |     1.50177
   20 C                |  18 C                |     2.76701  |     1.46424
   20 C                |  19 C                |     2.80396  |     1.48379
   21 N                |  13 C                |     2.73563  |     1.44763
   21 N                |  14 C                |     2.75208  |     1.45634
   21 N                |  15 C                |     2.78217  |     1.47226
   22 O                |  20 C                |     2.61786  |     1.38531
   23 H                |   1 C                |     2.07964  |     1.10050
   24 H                |   2 C                |     2.05041  |     1.08503
   25 H                |   3 C                |     2.05287  |     1.08633
   26 H                |   4 C                |     2.03087  |     1.07469
   27 H                |   5 C                |     2.06711  |     1.09387
   28 H                |   6 C                |     2.03170  |     1.07513
   29 H                |   7 C                |     2.08439  |     1.10301
   30 H                |   8 C                |     2.05804  |     1.08907
   31 H                |   9 C                |     2.04337  |     1.08131
   32 H                |  10 C                |     2.04040  |     1.07973
   33 H                |  11 C                |     2.05145  |     1.08558
   34 H                |  11 C                |     2.08158  |     1.10153
   35 H                |  12 C                |     2.08829  |     1.10507
   36 H                |  12 C                |     2.08679  |     1.10428
   37 H                |  13 C                |     2.07485  |     1.09796
   38 H                |  13 C                |     2.10215  |     1.11241
   39 H                |  14 C                |     2.08317  |     1.10237
   40 H                |  14 C                |     2.08811  |     1.10498
   41 H                |  15 C                |     2.09912  |     1.11081
   42 H                |  15 C                |     2.06746  |     1.09405
   43 H                |  16 C                |     2.07591  |     1.09852
   44 H                |  19 C                |     2.08803  |     1.10494
   45 H                |  22 O                |     1.85631  |     0.98232
 ------------------------------------------------------------------------------
                         number of included internuclear distances:         48
 ==============================================================================



 ==============================================================================
                                 internuclear angles
 ------------------------------------------------------------------------------
        center 1       |       center 2       |       center 3       |  degrees
 ------------------------------------------------------------------------------
    3 C                |   1 C                |   4 C                |   121.48
    3 C                |   1 C                |  23 H                |   122.47
    4 C                |   1 C                |  23 H                |   116.05
    5 C                |   2 C                |   6 C                |   121.28
    5 C                |   2 C                |  24 H                |   117.07
    6 C                |   2 C                |  24 H                |   121.64
    1 C                |   3 C                |   7 C                |   121.29
    1 C                |   3 C                |  25 H                |   119.76
    7 C                |   3 C                |  25 H                |   118.95
    1 C                |   4 C                |   8 C                |   115.77
    1 C                |   4 C                |  26 H                |   122.67
    8 C                |   4 C                |  26 H                |   121.56
    2 C                |   5 C                |   9 C                |   118.27
    2 C                |   5 C                |  27 H                |   119.71
    9 C                |   5 C                |  27 H                |   122.03
    2 C                |   6 C                |  10 C                |   118.94
    2 C                |   6 C                |  28 H                |   122.62
   10 C                |   6 C                |  28 H                |   118.44
    3 C                |   7 C                |  17 C                |   118.43
    3 C                |   7 C                |  29 H                |   120.87
   17 C                |   7 C                |  29 H                |   120.70
    4 C                |   8 C                |  17 C                |   123.69
    4 C                |   8 C                |  30 H                |   115.84
   17 C                |   8 C                |  30 H                |   120.47
    5 C                |   9 C                |  18 C                |   122.01
    5 C                |   9 C                |  31 H                |   116.15
   18 C                |   9 C                |  31 H                |   121.83
    6 C                |  10 C                |  18 C                |   122.67
    6 C                |  10 C                |  32 H                |   119.89
   18 C                |  10 C                |  32 H                |   117.44
   13 C                |  11 C                |  16 C                |   106.72
   13 C                |  11 C                |  33 H                |   108.13
   13 C                |  11 C                |  34 H                |   112.52
   16 C                |  11 C                |  33 H                |   113.72
   16 C                |  11 C                |  34 H                |   106.66
   33 H                |  11 C                |  34 H                |   109.15
   14 C                |  12 C                |  16 C                |   107.58
   14 C                |  12 C                |  35 H                |   108.25
   14 C                |  12 C                |  36 H                |   112.38
   16 C                |  12 C                |  35 H                |   106.13
   16 C                |  12 C                |  36 H                |   111.52
   35 H                |  12 C                |  36 H                |   110.71
   11 C                |  13 C                |  21 N                |   108.04
   11 C                |  13 C                |  37 H                |   107.58
   11 C                |  13 C                |  38 H                |   111.69
   21 N                |  13 C                |  37 H                |   109.79
   21 N                |  13 C                |  38 H                |   107.19
   37 H                |  13 C                |  38 H                |   112.47
   12 C                |  14 C                |  21 N                |   106.95
   12 C                |  14 C                |  39 H                |   111.86
   12 C                |  14 C                |  40 H                |   111.08
   21 N                |  14 C                |  39 H                |   111.09
   21 N                |  14 C                |  40 H                |   107.27
   39 H                |  14 C                |  40 H                |   108.51
   19 C                |  15 C                |  21 N                |   108.65
   19 C                |  15 C                |  41 H                |   111.82
   19 C                |  15 C                |  42 H                |   112.95
   21 N                |  15 C                |  41 H                |   104.93
   21 N                |  15 C                |  42 H                |   110.65
   41 H                |  15 C                |  42 H                |   107.55
   11 C                |  16 C                |  12 C                |   105.12
   11 C                |  16 C                |  19 C                |   111.16
   11 C                |  16 C                |  43 H                |   112.10
   12 C                |  16 C                |  19 C                |   104.95
   12 C                |  16 C                |  43 H                |   110.35
   19 C                |  16 C                |  43 H                |   112.64
    7 C                |  17 C                |   8 C                |   119.34
    7 C                |  17 C                |  20 C                |   118.93
    8 C                |  17 C                |  20 C                |   121.73
    9 C                |  18 C                |  10 C                |   116.83
    9 C                |  18 C                |  20 C                |   116.48
   10 C                |  18 C                |  20 C                |   126.69
   15 C                |  19 C                |  16 C                |   104.79
   15 C                |  19 C                |  20 C                |   111.88
   15 C                |  19 C                |  44 H                |   106.15
   16 C                |  19 C                |  20 C                |   112.73
   16 C                |  19 C                |  44 H                |   110.27
   20 C                |  19 C                |  44 H                |   110.67
   17 C                |  20 C                |  18 C                |   106.08
   17 C                |  20 C                |  19 C                |   108.14
   17 C                |  20 C                |  22 O                |   106.92
   18 C                |  20 C                |  19 C                |   114.51
   18 C                |  20 C                |  22 O                |   108.59
   19 C                |  20 C                |  22 O                |   112.16
   13 C                |  21 N                |  14 C                |   107.53
   13 C                |  21 N                |  15 C                |   110.61
   14 C                |  21 N                |  15 C                |   108.73
   20 C                |  22 O                |  45 H                |   113.75
 ------------------------------------------------------------------------------
                            number of included internuclear angles:         88
 ==============================================================================





 Summary of "ao basis" -> "" (cartesian)
 ------------------------------------------------------------------------------
       Tag                 Description            Shells   Functions and Types
 ---------------- ------------------------------  ------  ---------------------
 *                           6-31g                    on all atoms 


 
                                 NWChem DFT Module
                                 -----------------
 
 
                                   Frag-00000001
 
 
                      Basis "ao basis" -> "ao basis" (cartesian)
                      -----
  C (Carbon)
  ----------
            Exponent  Coefficients 
       -------------- ---------------------------------------------------------
  1 S  3.04752490E+03  0.001835
  1 S  4.57369510E+02  0.014037
  1 S  1.03948690E+02  0.068843
  1 S  2.92101550E+01  0.232184
  1 S  9.28666300E+00  0.467941
  1 S  3.16392700E+00  0.362312
 
  2 S  7.86827240E+00 -0.119332
  2 S  1.88128850E+00 -0.160854
  2 S  5.44249300E-01  1.143456
 
  3 P  7.86827240E+00  0.068999
  3 P  1.88128850E+00  0.316424
  3 P  5.44249300E-01  0.744308
 
  4 S  1.68714400E-01  1.000000
 
  5 P  1.68714400E-01  1.000000
 
  N (Nitrogen)
  ------------
            Exponent  Coefficients 
       -------------- ---------------------------------------------------------
  1 S  4.17351100E+03  0.001835
  1 S  6.27457900E+02  0.013995
  1 S  1.42902100E+02  0.068587
  1 S  4.02343300E+01  0.232241
  1 S  1.28202100E+01  0.469070
  1 S  4.39043700E+00  0.360455
 
  2 S  1.16263580E+01 -0.114961
  2 S  2.71628000E+00 -0.169118
  2 S  7.72218000E-01  1.145852
 
  3 P  1.16263580E+01  0.067580
  3 P  2.71628000E+00  0.323907
  3 P  7.72218000E-01  0.740895
 
  4 S  2.12031300E-01  1.000000
 
  5 P  2.12031300E-01  1.000000
 
  O (Oxygen)
  ----------
            Exponent  Coefficients 
       -------------- ---------------------------------------------------------
  1 S  5.48467170E+03  0.001831
  1 S  8.25234950E+02  0.013950
  1 S  1.88046960E+02  0.068445
  1 S  5.29645000E+01  0.232714
  1 S  1.68975700E+01  0.470193
  1 S  5.79963530E+00  0.358521
 
  2 S  1.55396160E+01 -0.110778
  2 S  3.59993360E+00 -0.148026
  2 S  1.01376180E+00  1.130767
 
  3 P  1.55396160E+01  0.070874
  3 P  3.59993360E+00  0.339753
  3 P  1.01376180E+00  0.727159
 
  4 S  2.70005800E-01  1.000000
 
  5 P  2.70005800E-01  1.000000
 
  H (Hydrogen)
  ------------
            Exponent  Coefficients 
       -------------- ---------------------------------------------------------
  1 S  1.87311370E+01  0.033495
  1 S  2.82539370E+00  0.234727
  1 S  6.40121700E-01  0.813757
 
  2 S  1.61277800E-01  1.000000
 


 Summary of "ao basis" -> "ao basis" (cartesian)
 ------------------------------------------------------------------------------
       Tag                 Description            Shells   Functions and Types
 ---------------- ------------------------------  ------  ---------------------
 C                           6-31g                   5        9   3s2p
 N                           6-31g                   5        9   3s2p
 O                           6-31g                   5        9   3s2p
 H                           6-31g                   2        2   2s




 Summary of "ao basis" -> "ao basis" (cartesian)
 ------------------------------------------------------------------------------
       Tag                 Description            Shells   Functions and Types
 ---------------- ------------------------------  ------  ---------------------
 C                           6-31g                   5        9   3s2p
 N                           6-31g                   5        9   3s2p
 O                           6-31g                   5        9   3s2p
 H                           6-31g                   2        2   2s


  Caching 1-el integrals 
 
            General Information
            -------------------
          SCF calculation type: DFT
          Wavefunction type:  closed shell.
          No. of atoms     :    45
          No. of electrons :   158
           Alpha electrons :    79
            Beta electrons :    79
          Charge           :     0
          Spin multiplicity:     1
          Use of symmetry is: off; symmetry adaption is: off
          Maximum number of iterations:  30
          AO basis - number of functions:   244
                     number of shells:   156
          Convergence on energy requested:  1.00D-06
          Convergence on density requested:  1.00D-05
          Convergence on gradient requested:  5.00D-04
 
              XC Information
              --------------
                       M06-2X Method XC Functional
                     Hartree-Fock (Exact) Exchange  0.540          
                        M06-2X Exchange Functional  1.000          
                      M06-2X Correlation Potential  1.000          
 
             Grid Information
             ----------------
          Grid used for XC integration:  medium    
          Radial quadrature: Mura-Knowles        
          Angular quadrature: Lebedev. 
          Tag              B.-S. Rad. Rad. Pts. Rad. Cut. Ang. Pts.
          ---              ---------- --------- --------- ---------
          C                   0.70       49          14.0       434
          N                   0.65       49          14.0       434
          O                   0.60       49          13.0       434
          H                   0.35       45          14.0       434
          Grid pruning is: on 
          Number of quadrature shells:  2113
          Spatial weights used:  Erf1
 
          Convergence Information
          -----------------------
          Convergence aids based upon iterative change in 
          total energy or number of iterations. 
          Levelshifting, if invoked, occurs when the 
          HOMO/LUMO gap drops below (HL_TOL):  1.00D-02
          DIIS, if invoked, will attempt to extrapolate 
          using up to (NFOCK): 10 stored Fock matrices.

                    Damping( 0%)  Levelshifting(0.5)       DIIS
                  --------------- ------------------- ---------------
          dE  on:    start            ASAP                start   
          dE off:    2 iters         30 iters            30 iters 

 
      Screening Tolerance Information
      -------------------------------
          Density screening/tol_rho:  1.00D-10
          AO Gaussian exp screening on grid/accAOfunc:  14
          CD Gaussian exp screening on grid/accCDfunc:  20
          XC Gaussian exp screening on grid/accXCfunc:  20
          Schwarz screening/accCoul:  1.00D-08

 
      Superposition of Atomic Density Guess
      -------------------------------------
 
 Sum of atomic energies:        -893.71252185
 
      Non-variational initial energy
      ------------------------------

 Total energy =    -910.928170
 1-e energy   =   -4975.577295
 2-e energy   =    2169.544880
 HOMO         =      -0.224957
 LUMO         =       0.004306
 
   Time after variat. SCF:      4.8
   Time prior to 1st pass:      4.8

 Grid_pts file          = ./LoadBalanceApplication.gridpts.0
 Record size in doubles =  12289        No. of grid_pts per rec  =   3070
 Max. records in memory =     84        Max. recs in file   = 253312716

 Grid integrated density:     158.000197998797
 Requested integration accuracy:   0.10E-05

           Memory utilization after 1st SCF pass: 
           Heap Space remaining (MW):        5.75             5749000
          Stack Space remaining (MW):       13.10            13103532

   convergence    iter        energy       DeltaE   RMS-Dens  Diis-err    time
 ---------------- ----- ----------------- --------- --------- ---------  ------
 d= 0,ls=0.0,diis     1   -905.0868843167 -2.80D+03  7.31D-03  1.40D+00    20.4
 Grid integrated density:     158.000163868297
 Requested integration accuracy:   0.10E-05
 d= 0,ls=0.0,diis     2   -905.2419417441 -1.55D-01  4.33D-03  4.90D-01    34.7
 Grid integrated density:     158.000165375032
 Requested integration accuracy:   0.10E-05
 d= 0,ls=0.0,diis     3   -905.2786256951 -3.67D-02  1.75D-03  1.42D-01    49.4
 Grid integrated density:     158.000165395427
 Requested integration accuracy:   0.10E-05
 d= 0,ls=0.0,diis     4   -905.2927919772 -1.42D-02  4.19D-04  6.88D-03    65.1
 Grid integrated density:     158.000165206435
 Requested integration accuracy:   0.10E-05
 d= 0,ls=0.0,diis     5   -905.2936824182 -8.90D-04  1.30D-04  6.25D-04    82.1
 Grid integrated density:     158.000165132096
 Requested integration accuracy:   0.10E-05
  Resetting Diis
 d= 0,ls=0.0,diis     6   -905.2937626947 -8.03D-05  3.90D-05  5.41D-05    98.0
 Grid integrated density:     158.000165123260
 Requested integration accuracy:   0.10E-05
 d= 0,ls=0.0,diis     7   -905.2937694861 -6.79D-06  1.67D-05  1.81D-06   114.2
 Grid integrated density:     158.000165162481
 Requested integration accuracy:   0.10E-05
 d= 0,ls=0.0,diis     8   -905.2937694467  3.95D-08  7.89D-06  2.62D-06   130.1


         Total DFT energy =     -905.293769446658
      One electron energy =    -4991.609132791980
           Coulomb energy =     2323.921602544971
    Exchange-Corr. energy =     -132.710483607218
 Nuclear repulsion energy =     1895.104244407569

 Numeric. integr. density =      158.000165162481

     Total iterative time =    125.3s


 
                       DFT Final Molecular Orbital Analysis
                       ------------------------------------
 
 Vector    1  Occ=2.000000D+00  E=-1.963913D+01
              MO Center=  3.0D-02,  9.4D-02,  1.8D+00, r^2= 1.5D-02
   Bfn.  Coefficient  Atom+Function         Bfn.  Coefficient  Atom+Function  
  ----- ------------  ---------------      ----- ------------  ---------------
   190      0.995727  22 O  s               191      0.026423  22 O  s         
 
 Vector    2  Occ=2.000000D+00  E=-1.472791D+01
              MO Center=  9.9D-01, -3.2D+00, -1.9D-01, r^2= 2.0D-02
   Bfn.  Coefficient  Atom+Function         Bfn.  Coefficient  Atom+Function  
  ----- ------------  ---------------      ----- ------------  ---------------
   181      0.996099  21 N  s               186     -0.031750  21 N  s         
   182      0.030861  21 N  s         
 
 Vector    3  Occ=2.000000D+00  E=-1.060274D+01
              MO Center= -6.2D-03,  2.7D-01,  4.6D-01, r^2= 2.8D-02
   Bfn.  Coefficient  Atom+Function         Bfn.  Coefficient  Atom+Function  
  ----- ------------  ---------------      ----- ------------  ---------------
   172      0.996592  20 C  s               177     -0.066666  20 C  s         
   173      0.038783  20 C  s         
 
 Vector    4  Occ=2.000000D+00  E=-1.055770D+01
              MO Center= -1.2D+00,  1.1D+00,  1.3D-01, r^2= 4.0D-02
   Bfn.  Coefficient  Atom+Function         Bfn.  Coefficient  Atom+Function  
  ----- ------------  ---------------      ----- ------------  ---------------
   154      0.992800  18 C  s                82      0.057417  10 C  s         
    73      0.053017   9 C  s               159     -0.037804  18 C  s         
   155      0.033380  18 C  s         
 
 Vector    5  Occ=2.000000D+00  E=-1.055593D+01
              MO Center=  2.1D-01, -3.4D+00, -1.4D+00, r^2= 2.8D-02
   Bfn.  Coefficient  Atom+Function         Bfn.  Coefficient  Atom+Function  
  ----- ------------  ---------------      ----- ------------  ---------------
   118      0.996094  14 C  s               119      0.034487  14 C  s         
   123     -0.034194  14 C  s         
 
 Vector    6  Occ=2.000000D+00  E=-1.055297D+01
              MO Center= -2.4D+00,  3.0D+00,  7.9D-01, r^2= 1.8D-01
   Bfn.  Coefficient  Atom+Function         Bfn.  Coefficient  Atom+Function  
  ----- ------------  ---------------      ----- ------------  ---------------
    37      0.957337   5 C  s                73      0.237770   9 C  s         
    10      0.125225   2 C  s                46      0.049010   6 C  s         
    38      0.029905   5 C  s                42     -0.029002   5 C  s         
 
 Vector    7  Occ=2.000000D+00  E=-1.055219D+01
              MO Center= -3.0D+00,  1.8D+00, -1.1D+00, r^2= 2.1D-01
   Bfn.  Coefficient  Atom+Function         Bfn.  Coefficient  Atom+Function  
  ----- ------------  ---------------      ----- ------------  ---------------
    46      0.952794   6 C  s                82      0.232842  10 C  s         
    10      0.152391   2 C  s                37     -0.056113   5 C  s         
    73     -0.052457   9 C  s                47      0.029808   6 C  s         
    51     -0.028658   6 C  s         
 
 Vector    8  Occ=2.000000D+00  E=-1.055139D+01
              MO Center= -1.5D+00,  2.2D+00,  9.8D-01, r^2= 1.6D-01
   Bfn.  Coefficient  Atom+Function         Bfn.  Coefficient  Atom+Function  
  ----- ------------  ---------------      ----- ------------  ---------------
    73      0.963744   9 C  s                37     -0.236619   5 C  s         
   154     -0.051073  18 C  s                10     -0.048526   2 C  s         
    46      0.046435   6 C  s                78     -0.040923   9 C  s         
    74      0.031653   9 C  s         
 
 Vector    9  Occ=2.000000D+00  E=-1.055077D+01
              MO Center=  1.9D-01, -3.8D+00,  8.8D-01, r^2= 2.9D-02
   Bfn.  Coefficient  Atom+Function         Bfn.  Coefficient  Atom+Function  
  ----- ------------  ---------------      ----- ------------  ---------------
   109      0.996059  13 C  s               110      0.034452  13 C  s         
   114     -0.034615  13 C  s         
 
 Vector   10  Occ=2.000000D+00  E=-1.055051D+01
              MO Center= -2.1D+00,  1.1D+00, -9.4D-01, r^2= 2.0D-01
   Bfn.  Coefficient  Atom+Function         Bfn.  Coefficient  Atom+Function  
  ----- ------------  ---------------      ----- ------------  ---------------
    82      0.962845  10 C  s                46     -0.215177   6 C  s         
    10     -0.121449   2 C  s               154     -0.055979  18 C  s         
    87     -0.041803  10 C  s                83      0.031975  10 C  s         
 
 Vector   11  Occ=2.000000D+00  E=-1.054977D+01
              MO Center= -3.2D+00,  2.8D+00, -3.1D-01, r^2= 1.6D-01
   Bfn.  Coefficient  Atom+Function         Bfn.  Coefficient  Atom+Function  
  ----- ------------  ---------------      ----- ------------  ---------------
    10      0.967276   2 C  s                46     -0.181596   6 C  s         
    37     -0.124480   5 C  s                82      0.084205  10 C  s         
    15     -0.041340   2 C  s                11      0.031635   2 C  s         
    51      0.026918   6 C  s                73      0.027002   9 C  s         
 
 Vector   12  Occ=2.000000D+00  E=-1.054878D+01
              MO Center=  1.3D+00, -1.8D+00,  6.9D-02, r^2= 2.8D-02
   Bfn.  Coefficient  Atom+Function         Bfn.  Coefficient  Atom+Function  
  ----- ------------  ---------------      ----- ------------  ---------------
   127      0.996017  15 C  s               132     -0.034797  15 C  s         
   128      0.034609  15 C  s         
 
 Vector   13  Occ=2.000000D+00  E=-1.054336D+01
              MO Center=  1.2D+00,  1.1D+00,  2.2D-02, r^2= 1.3D-01
   Bfn.  Coefficient  Atom+Function         Bfn.  Coefficient  Atom+Function  
  ----- ------------  ---------------      ----- ------------  ---------------
   145      0.968816  17 C  s                55      0.227035   7 C  s         
   150     -0.035431  17 C  s               146      0.032653  17 C  s         
    64      0.030293   8 C  s                19      0.025444   3 C  s         
 
 Vector   14  Occ=2.000000D+00  E=-1.054162D+01
              MO Center=  1.5D+00,  1.4D+00, -1.2D+00, r^2= 2.2D-01
   Bfn.  Coefficient  Atom+Function         Bfn.  Coefficient  Atom+Function  
  ----- ------------  ---------------      ----- ------------  ---------------
    55      0.942536   7 C  s               145     -0.226928  17 C  s         
    19      0.225114   3 C  s                60     -0.036228   7 C  s         
     1      0.032766   1 C  s                56      0.030466   7 C  s         
 
 Vector   15  Occ=2.000000D+00  E=-1.054003D+01
              MO Center=  2.6D+00,  2.1D+00, -1.4D+00, r^2= 3.3D-01
   Bfn.  Coefficient  Atom+Function         Bfn.  Coefficient  Atom+Function  
  ----- ------------  ---------------      ----- ------------  ---------------
    19      0.912298   3 C  s                 1      0.325119   1 C  s         
    55     -0.222800   7 C  s                28      0.056029   4 C  s         
    24     -0.032139   3 C  s                20      0.029065   3 C  s         
   145      0.028269  17 C  s         
 
 Vector   16  Occ=2.000000D+00  E=-1.053887D+01
              MO Center=  3.3D+00,  2.4D+00, -5.4D-01, r^2= 4.4D-01
   Bfn.  Coefficient  Atom+Function         Bfn.  Coefficient  Atom+Function  
  ----- ------------  ---------------      ----- ------------  ---------------
     1      0.876725   1 C  s                28      0.341420   4 C  s         
    19     -0.322521   3 C  s                55      0.046259   7 C  s         
     6     -0.031774   1 C  s                 2      0.027976   1 C  s         
    24      0.025965   3 C  s         
 
 Vector   17  Occ=2.000000D+00  E=-1.053798D+01
              MO Center= -1.1D+00, -1.9D+00,  6.8D-02, r^2= 4.4D-02
   Bfn.  Coefficient  Atom+Function         Bfn.  Coefficient  Atom+Function  
  ----- ------------  ---------------      ----- ------------  ---------------
   136      0.992965  16 C  s               163      0.076580  19 C  s         
   141     -0.047526  16 C  s               137      0.036772  16 C  s         
   100      0.028451  12 C  s         
 
 Vector   18  Occ=2.000000D+00  E=-1.053784D+01
              MO Center=  3.3D+00,  2.2D+00,  5.8D-01, r^2= 2.5D-01
   Bfn.  Coefficient  Atom+Function         Bfn.  Coefficient  Atom+Function  
  ----- ------------  ---------------      ----- ------------  ---------------
    28      0.932140   4 C  s                 1     -0.340921   1 C  s         
    19      0.063518   3 C  s                64      0.052198   8 C  s         
    33     -0.038889   4 C  s                29      0.030531   4 C  s         
     6      0.028762   1 C  s         
 
 Vector   19  Occ=2.000000D+00  E=-1.053590D+01
              MO Center=  2.8D-02, -1.0D+00, -2.7D-01, r^2= 4.2D-02
   Bfn.  Coefficient  Atom+Function         Bfn.  Coefficient  Atom+Function  
  ----- ------------  ---------------      ----- ------------  ---------------
   163      0.993307  19 C  s               136     -0.076653  16 C  s         
   168     -0.048475  19 C  s               164      0.037124  19 C  s         
 
 Vector   20  Occ=2.000000D+00  E=-1.053259D+01
              MO Center= -1.2D+00, -2.9D+00, -1.1D+00, r^2= 3.0D-02
   Bfn.  Coefficient  Atom+Function         Bfn.  Coefficient  Atom+Function  
  ----- ------------  ---------------      ----- ------------  ---------------
   100      0.995712  12 C  s               105     -0.038036  12 C  s         
   101      0.034993  12 C  s               136     -0.028963  16 C  s         
 
 Vector   21  Occ=2.000000D+00  E=-1.053104D+01
              MO Center=  2.1D+00,  1.5D+00,  1.0D+00, r^2= 3.5D-02
   Bfn.  Coefficient  Atom+Function         Bfn.  Coefficient  Atom+Function  
  ----- ------------  ---------------      ----- ------------  ---------------
    64      0.993807   8 C  s                28     -0.055447   4 C  s         
    69     -0.039173   8 C  s                65      0.032170   8 C  s         
   145     -0.031695  17 C  s         
 
 Vector   22  Occ=2.000000D+00  E=-1.052154D+01
              MO Center= -8.3D-01, -2.8D+00,  1.3D+00, r^2= 2.8D-02
   Bfn.  Coefficient  Atom+Function         Bfn.  Coefficient  Atom+Function  
  ----- ------------  ---------------      ----- ------------  ---------------
    91      0.996058  11 C  s                96     -0.036934  11 C  s         
    92      0.034842  11 C  s         
 
 Vector   23  Occ=2.000000D+00  E=-1.177807D+00
              MO Center= -1.0D-01,  1.8D-01,  1.6D+00, r^2= 7.7D-01
   Bfn.  Coefficient  Atom+Function         Bfn.  Coefficient  Atom+Function  
  ----- ------------  ---------------      ----- ------------  ---------------
   195      0.477042  22 O  s               191      0.418697  22 O  s         
   190     -0.194956  22 O  s               173      0.165003  20 C  s         
   243      0.114893  45 H  s               176      0.109025  20 C  pz        
   172     -0.088285  20 C  s               180     -0.085111  20 C  pz        
   177      0.084150  20 C  s               192     -0.082523  22 O  px        
 
 Vector   24  Occ=2.000000D+00  E=-1.058951D+00
              MO Center=  4.5D-01, -2.9D+00, -1.4D-01, r^2= 1.7D+00
   Bfn.  Coefficient  Atom+Function         Bfn.  Coefficient  Atom+Function  
  ----- ------------  ---------------      ----- ------------  ---------------
   186      0.339971  21 N  s               182      0.284169  21 N  s         
   181     -0.146114  21 N  s               119      0.138587  14 C  s         
   110      0.137763  13 C  s               128      0.131701  15 C  s         
   183     -0.085020  21 N  px              137      0.081088  16 C  s         
   101      0.076201  12 C  s               164      0.075919  19 C  s         
 
 Vector   25  Occ=2.000000D+00  E=-9.854815D-01
              MO Center= -1.3D+00,  1.6D+00, -4.0D-02, r^2= 4.4D+00
   Bfn.  Coefficient  Atom+Function         Bfn.  Coefficient  Atom+Function  
  ----- ------------  ---------------      ----- ------------  ---------------
   155      0.191640  18 C  s                83      0.168616  10 C  s         
   177      0.165598  20 C  s                74      0.150318   9 C  s         
    47      0.146606   6 C  s               195     -0.143350  22 O  s         
    38      0.138320   5 C  s                11      0.137303   2 C  s         
    78      0.105809   9 C  s               154     -0.099761  18 C  s         
 
 Vector   26  Occ=2.000000D+00  E=-9.677054D-01
              MO Center=  1.3D+00,  1.7D+00, -2.1D-01, r^2= 5.6D+00
   Bfn.  Coefficient  Atom+Function         Bfn.  Coefficient  Atom+Function  
  ----- ------------  ---------------      ----- ------------  ---------------
   146      0.179352  17 C  s                56      0.165874   7 C  s         
    65      0.154039   8 C  s                20      0.151903   3 C  s         
     2      0.143083   1 C  s                29      0.143271   4 C  s         
    69      0.103835   8 C  s                24      0.095023   3 C  s         
   145     -0.094485  17 C  s               177      0.094428  20 C  s         
 
 Vector   27  Occ=2.000000D+00  E=-9.194259D-01
              MO Center= -2.7D-03, -6.8D-02,  1.6D-02, r^2= 7.6D+00
   Bfn.  Coefficient  Atom+Function         Bfn.  Coefficient  Atom+Function  
  ----- ------------  ---------------      ----- ------------  ---------------
   164      0.187171  19 C  s               186     -0.158958  21 N  s         
   168      0.152535  19 C  s               173      0.152686  20 C  s         
   177      0.151801  20 C  s               195     -0.145442  22 O  s         
   137      0.129884  16 C  s               141      0.127046  16 C  s         
   182     -0.120240  21 N  s               191     -0.105221  22 O  s         
 
 Vector   28  Occ=2.000000D+00  E=-8.863086D-01
              MO Center= -4.3D-01, -1.3D+00,  2.1D-02, r^2= 7.6D+00
   Bfn.  Coefficient  Atom+Function         Bfn.  Coefficient  Atom+Function  
  ----- ------------  ---------------      ----- ------------  ---------------
   141      0.200160  16 C  s               137      0.197332  16 C  s         
   186     -0.193595  21 N  s               101      0.151650  12 C  s         
    92      0.148913  11 C  s               182     -0.145052  21 N  s         
   105      0.129465  12 C  s                96      0.112426  11 C  s         
   136     -0.111053  16 C  s               177     -0.108407  20 C  s         
 
 Vector   29  Occ=2.000000D+00  E=-8.579845D-01
              MO Center= -1.1D+00,  3.0D-01, -1.1D-02, r^2= 8.4D+00
   Bfn.  Coefficient  Atom+Function         Bfn.  Coefficient  Atom+Function  
  ----- ------------  ---------------      ----- ------------  ---------------
   155     -0.173046  18 C  s                47      0.170791   6 C  s         
    11      0.166417   2 C  s                74     -0.166769   9 C  s         
   128      0.148679  15 C  s               132      0.138811  15 C  s         
   159     -0.138467  18 C  s               164      0.133061  19 C  s         
    51      0.129258   6 C  s                78     -0.122372   9 C  s         
 
 Vector   30  Occ=2.000000D+00  E=-8.557071D-01
              MO Center= -1.9D+00,  1.9D+00, -6.7D-02, r^2= 4.4D+00
   Bfn.  Coefficient  Atom+Function         Bfn.  Coefficient  Atom+Function  
  ----- ------------  ---------------      ----- ------------  ---------------
    38      0.244432   5 C  s                83     -0.243477  10 C  s         
    42      0.184161   5 C  s                87     -0.175062  10 C  s         
    74      0.157232   9 C  s                47     -0.154624   6 C  s         
    37     -0.123363   5 C  s                82      0.122936  10 C  s         
    78      0.112475   9 C  s                51     -0.111601   6 C  s         
 
 Vector   31  Occ=2.000000D+00  E=-8.456565D-01
              MO Center= -2.3D-01, -3.0D+00, -7.7D-02, r^2= 3.7D+00
   Bfn.  Coefficient  Atom+Function         Bfn.  Coefficient  Atom+Function  
  ----- ------------  ---------------      ----- ------------  ---------------
   119      0.211295  14 C  s               123      0.210061  14 C  s         
   110     -0.199466  13 C  s               114     -0.194269  13 C  s         
    92     -0.191999  11 C  s                96     -0.169785  11 C  s         
   101      0.169868  12 C  s               105      0.153795  12 C  s         
   185     -0.125225  21 N  pz              118     -0.112715  14 C  s         
 
 Vector   32  Occ=2.000000D+00  E=-8.414594D-01
              MO Center=  2.0D+00,  1.5D+00, -2.3D-01, r^2= 5.1D+00
   Bfn.  Coefficient  Atom+Function         Bfn.  Coefficient  Atom+Function  
  ----- ------------  ---------------      ----- ------------  ---------------
    29      0.240881   4 C  s                56     -0.238001   7 C  s         
    33      0.170434   4 C  s                60     -0.158888   7 C  s         
    65      0.156434   8 C  s                20     -0.155435   3 C  s         
    24     -0.124539   3 C  s                28     -0.121509   4 C  s         
    55      0.119687   7 C  s                69      0.111938   8 C  s         
 
 Vector   33  Occ=2.000000D+00  E=-8.386556D-01
              MO Center=  1.4D+00,  9.2D-01, -2.6D-01, r^2= 8.0D+00
   Bfn.  Coefficient  Atom+Function         Bfn.  Coefficient  Atom+Function  
  ----- ------------  ---------------      ----- ------------  ---------------
    20      0.193377   3 C  s                65     -0.185256   8 C  s         
   146     -0.184545  17 C  s                 2      0.176535   1 C  s         
    24      0.151016   3 C  s               150     -0.146330  17 C  s         
    69     -0.143722   8 C  s                 6      0.127695   1 C  s         
   132      0.106290  15 C  s               128      0.104879  15 C  s         
 
 Vector   34  Occ=2.000000D+00  E=-7.735165D-01
              MO Center=  2.2D-01,  3.9D-01,  1.4D-01, r^2= 9.4D+00
   Bfn.  Coefficient  Atom+Function         Bfn.  Coefficient  Atom+Function  
  ----- ------------  ---------------      ----- ------------  ---------------
   177      0.222176  20 C  s               173      0.207122  20 C  s         
   132     -0.149005  15 C  s                 2      0.139586   1 C  s         
   128     -0.130914  15 C  s                11      0.129357   2 C  s         
   194     -0.125052  22 O  pz                6      0.111129   1 C  s         
   166      0.104137  19 C  py              172     -0.103498  20 C  s         
 
 Vector   35  Occ=2.000000D+00  E=-7.137823D-01
              MO Center= -4.1D-01,  4.8D-01, -8.9D-03, r^2= 9.4D+00
   Bfn.  Coefficient  Atom+Function         Bfn.  Coefficient  Atom+Function  
  ----- ------------  ---------------      ----- ------------  ---------------
   132      0.137148  15 C  s                47      0.122983   6 C  s         
    38     -0.121297   5 C  s               158      0.121416  18 C  pz        
   128      0.118060  15 C  s               168     -0.108745  19 C  s         
    14     -0.103119   2 C  pz               83     -0.099729  10 C  s         
   164     -0.095758  19 C  s                74      0.093801   9 C  s         
 
 Vector   36  Occ=2.000000D+00  E=-7.029648D-01
              MO Center= -1.0D+00, -1.4D-02,  4.0D-02, r^2= 1.0D+01
   Bfn.  Coefficient  Atom+Function         Bfn.  Coefficient  Atom+Function  
  ----- ------------  ---------------      ----- ------------  ---------------
   186      0.169932  21 N  s               141      0.165100  16 C  s         
    11      0.150295   2 C  s               114     -0.139288  13 C  s         
   155      0.126150  18 C  s               174     -0.122362  20 C  px        
   137      0.119463  16 C  s                15      0.114803   2 C  s         
    49      0.110750   6 C  py               76     -0.107684   9 C  py        
 
 Vector   37  Occ=2.000000D+00  E=-6.975545D-01
              MO Center= -3.5D-01, -3.0D+00, -1.6D-01, r^2= 4.1D+00
   Bfn.  Coefficient  Atom+Function         Bfn.  Coefficient  Atom+Function  
  ----- ------------  ---------------      ----- ------------  ---------------
    96      0.256481  11 C  s               123      0.249703  14 C  s         
   105     -0.220172  12 C  s                92      0.199187  11 C  s         
   119      0.198372  14 C  s               185     -0.168061  21 N  pz        
   101     -0.158455  12 C  s               114     -0.140349  13 C  s         
   140      0.126857  16 C  pz              110     -0.109294  13 C  s         
 
 Vector   38  Occ=2.000000D+00  E=-6.900615D-01
              MO Center=  8.1D-01,  5.2D-01, -1.4D-02, r^2= 9.9D+00
   Bfn.  Coefficient  Atom+Function         Bfn.  Coefficient  Atom+Function  
  ----- ------------  ---------------      ----- ------------  ---------------
   149      0.161873  17 C  pz               29     -0.139940   4 C  s         
   186      0.137377  21 N  s                 5     -0.135130   1 C  pz        
    56     -0.126543   7 C  s                20      0.122453   3 C  s         
    33     -0.120361   4 C  s               141      0.117837  16 C  s         
    65      0.113099   8 C  s               194     -0.100678  22 O  pz        
 
 Vector   39  Occ=2.000000D+00  E=-6.892636D-01
              MO Center= -1.1D+00,  2.5D-01, -9.6D-02, r^2= 9.6D+00
   Bfn.  Coefficient  Atom+Function         Bfn.  Coefficient  Atom+Function  
  ----- ------------  ---------------      ----- ------------  ---------------
   132      0.196734  15 C  s               168     -0.162461  19 C  s         
    47     -0.154903   6 C  s                74     -0.150982   9 C  s         
    51     -0.134417   6 C  s               128      0.134397  15 C  s         
   105      0.133383  12 C  s                78     -0.129056   9 C  s         
   158     -0.119937  18 C  pz               14      0.112768   2 C  pz        
 
 Vector   40  Occ=2.000000D+00  E=-6.754406D-01
              MO Center=  1.1D+00,  7.9D-01, -1.7D-01, r^2= 1.1D+01
   Bfn.  Coefficient  Atom+Function         Bfn.  Coefficient  Atom+Function  
  ----- ------------  ---------------      ----- ------------  ---------------
    65      0.150267   8 C  s                20      0.148896   3 C  s         
   186     -0.144558  21 N  s                 2     -0.130055   1 C  s         
   146     -0.124987  17 C  s                24      0.120213   3 C  s         
    59     -0.114639   7 C  pz              141     -0.114177  16 C  s         
    32      0.109771   4 C  pz               69      0.109613   8 C  s         
 
 Vector   41  Occ=2.000000D+00  E=-6.545396D-01
              MO Center=  9.5D-01,  8.3D-01,  1.9D-01, r^2= 8.6D+00
   Bfn.  Coefficient  Atom+Function         Bfn.  Coefficient  Atom+Function  
  ----- ------------  ---------------      ----- ------------  ---------------
   194      0.208376  22 O  pz              177     -0.144499  20 C  s         
    59      0.132499   7 C  pz               29     -0.131674   4 C  s         
   168      0.128360  19 C  s               146      0.120670  17 C  s         
   243      0.119367  45 H  s                21      0.118237   3 C  px        
    33     -0.114633   4 C  s                66     -0.114585   8 C  px        
 
 Vector   42  Occ=2.000000D+00  E=-6.273058D-01
              MO Center= -1.3D+00,  1.2D+00,  1.6D-01, r^2= 7.3D+00
   Bfn.  Coefficient  Atom+Function         Bfn.  Coefficient  Atom+Function  
  ----- ------------  ---------------      ----- ------------  ---------------
   156      0.150329  18 C  px               77      0.138087   9 C  pz        
    50     -0.131055   6 C  pz               86     -0.131531  10 C  pz        
   194      0.127544  22 O  pz              192     -0.121267  22 O  px        
   157     -0.119530  18 C  py               85     -0.113811  10 C  py        
    40      0.112208   5 C  py              175      0.107923  20 C  py        
 
 Vector   43  Occ=2.000000D+00  E=-6.021795D-01
              MO Center=  1.3D+00,  7.1D-01, -1.2D-01, r^2= 8.4D+00
   Bfn.  Coefficient  Atom+Function         Bfn.  Coefficient  Atom+Function  
  ----- ------------  ---------------      ----- ------------  ---------------
    68     -0.148203   8 C  pz               23      0.147166   3 C  pz        
   174     -0.129502  20 C  px              147      0.125683  17 C  px        
   194     -0.114849  22 O  pz               32     -0.109589   4 C  pz        
    59      0.109572   7 C  pz                3     -0.106629   1 C  px        
   167      0.107136  19 C  pz               57      0.100178   7 C  px        
 
 Vector   44  Occ=2.000000D+00  E=-5.824441D-01
              MO Center= -1.4D-01, -1.6D+00, -8.0D-03, r^2= 7.7D+00
   Bfn.  Coefficient  Atom+Function         Bfn.  Coefficient  Atom+Function  
  ----- ------------  ---------------      ----- ------------  ---------------
   138      0.188903  16 C  px              129     -0.153107  15 C  px        
   239     -0.149160  43 H  s               112      0.116031  13 C  py        
   121      0.115202  14 C  py              166     -0.114172  19 C  py        
   142      0.109489  16 C  px              194     -0.103972  22 O  pz        
   176      0.099428  20 C  pz              141     -0.097577  16 C  s         
 
 Vector   45  Occ=2.000000D+00  E=-5.798200D-01
              MO Center= -1.2D-01, -1.2D+00, -2.4D-02, r^2= 9.8D+00
   Bfn.  Coefficient  Atom+Function         Bfn.  Coefficient  Atom+Function  
  ----- ------------  ---------------      ----- ------------  ---------------
   176      0.155570  20 C  pz              122     -0.136596  14 C  pz        
   166     -0.135650  19 C  py              141      0.133302  16 C  s         
   186     -0.132040  21 N  s               114      0.128588  13 C  s         
   103      0.123732  12 C  py              192      0.120866  22 O  px        
   194     -0.117304  22 O  pz              105     -0.106996  12 C  s         
 
 Vector   46  Occ=2.000000D+00  E=-5.717926D-01
              MO Center= -4.9D-01, -2.0D+00,  4.0D-02, r^2= 8.7D+00
   Bfn.  Coefficient  Atom+Function         Bfn.  Coefficient  Atom+Function  
  ----- ------------  ---------------      ----- ------------  ---------------
   104      0.154882  12 C  pz               95     -0.137847  11 C  pz        
   111     -0.137429  13 C  px              130      0.128159  15 C  py        
   225     -0.114993  36 H  s               227      0.115278  37 H  s         
   112     -0.112740  13 C  py              113     -0.109060  13 C  pz        
   219     -0.107257  33 H  s               186     -0.103929  21 N  s         
 
 Vector   47  Occ=2.000000D+00  E=-5.640096D-01
              MO Center= -8.4D-02, -8.3D-01,  5.3D-02, r^2= 1.1D+01
   Bfn.  Coefficient  Atom+Function         Bfn.  Coefficient  Atom+Function  
  ----- ------------  ---------------      ----- ------------  ---------------
   131      0.171532  15 C  pz              167      0.142890  19 C  pz        
   177     -0.127318  20 C  s                12     -0.112861   2 C  px        
    94      0.106075  11 C  py              185      0.103094  21 N  pz        
   112      0.097157  13 C  py              201      0.092090  24 H  s         
   120     -0.090866  14 C  px              121     -0.089534  14 C  py        
 
 Vector   48  Occ=2.000000D+00  E=-5.552455D-01
              MO Center= -1.1D+00,  3.4D-01,  7.4D-02, r^2= 1.0D+01
   Bfn.  Coefficient  Atom+Function         Bfn.  Coefficient  Atom+Function  
  ----- ------------  ---------------      ----- ------------  ---------------
   192      0.139234  22 O  px              186      0.138409  21 N  s         
   141     -0.132194  16 C  s                12     -0.126534   2 C  px        
    84      0.125966  10 C  px              175     -0.120152  20 C  py        
    14     -0.110924   2 C  pz               85     -0.110995  10 C  py        
   201      0.108002  24 H  s                49      0.104481   6 C  py        
 
 Vector   49  Occ=2.000000D+00  E=-5.272334D-01
              MO Center= -1.4D+00,  1.2D+00, -1.2D-01, r^2= 9.1D+00
   Bfn.  Coefficient  Atom+Function         Bfn.  Coefficient  Atom+Function  
  ----- ------------  ---------------      ----- ------------  ---------------
    41     -0.162157   5 C  pz               48      0.161324   6 C  px        
[...]
 
 Vector  223  Occ=0.000000D+00  E= 1.364646D+00
              MO Center= -6.3D-01,  3.6D-01,  1.4D-01, r^2= 7.7D+00
   Bfn.  Coefficient  Atom+Function         Bfn.  Coefficient  Atom+Function  
  ----- ------------  ---------------      ----- ------------  ---------------
    87      4.052460  10 C  s               159     -2.554468  18 C  s         
   150     -2.539855  17 C  s               162      2.265826  18 C  pz        
   177      1.942243  20 C  s                70     -1.654842   8 C  px        
   171     -1.433440  19 C  pz               78     -1.400952   9 C  s         
    33      1.373652   4 C  s               161      1.307376  18 C  py        
 
 Vector  224  Occ=0.000000D+00  E= 1.404392D+00
              MO Center= -4.5D-01, -9.0D-01, -5.9D-02, r^2= 9.1D+00
   Bfn.  Coefficient  Atom+Function         Bfn.  Coefficient  Atom+Function  
  ----- ------------  ---------------      ----- ------------  ---------------
    87      3.517918  10 C  s               162      2.476884  18 C  pz        
    78     -2.210116   9 C  s               132     -2.168714  15 C  s         
    96     -1.878557  11 C  s               188      1.709327  21 N  py        
    80      1.531564   9 C  py              141      1.519540  16 C  s         
   150      1.442749  17 C  s               144      1.433289  16 C  pz        
 
 Vector  225  Occ=0.000000D+00  E= 1.441949D+00
              MO Center=  3.4D-01, -4.1D-01,  4.7D-01, r^2= 8.3D+00
   Bfn.  Coefficient  Atom+Function         Bfn.  Coefficient  Atom+Function  
  ----- ------------  ---------------      ----- ------------  ---------------
   159      4.273044  18 C  s               153     -3.725551  17 C  pz        
   178      3.602662  20 C  px              169     -2.991486  19 C  px        
   150     -2.896966  17 C  s               180      2.882957  20 C  pz        
   168      2.625013  19 C  s                69      2.437846   8 C  s         
    60     -1.863937   7 C  s               132      1.870103  15 C  s         
 
 Vector  226  Occ=0.000000D+00  E= 1.472815D+00
              MO Center=  6.3D-01,  6.0D-01,  6.8D-01, r^2= 9.1D+00
   Bfn.  Coefficient  Atom+Function         Bfn.  Coefficient  Atom+Function  
  ----- ------------  ---------------      ----- ------------  ---------------
   159     -2.714396  18 C  s                60      2.611291   7 C  s         
    36     -2.270464   4 C  pz              162      2.281288  18 C  pz        
    87      2.154688  10 C  s               178     -2.146593  20 C  px        
    72      2.047983   8 C  pz              153      2.020221  17 C  pz        
    69     -2.007078   8 C  s               180     -1.694932  20 C  pz        
 
 Vector  227  Occ=0.000000D+00  E= 1.491330D+00
              MO Center=  3.2D-01, -8.3D-01,  7.6D-02, r^2= 9.3D+00
   Bfn.  Coefficient  Atom+Function         Bfn.  Coefficient  Atom+Function  
  ----- ------------  ---------------      ----- ------------  ---------------
    87      2.734406  10 C  s               114     -2.702282  13 C  s         
   162      2.514987  18 C  pz              150      2.328624  17 C  s         
    78     -2.034589   9 C  s               180     -1.798176  20 C  pz        
   141      1.516427  16 C  s               153      1.523196  17 C  pz        
     7     -1.433396   1 C  px              135     -1.386322  15 C  pz        
 
 Vector  228  Occ=0.000000D+00  E= 1.518245D+00
              MO Center= -1.5D+00,  1.4D+00,  2.5D-01, r^2= 8.5D+00
   Bfn.  Coefficient  Atom+Function         Bfn.  Coefficient  Atom+Function  
  ----- ------------  ---------------      ----- ------------  ---------------
   159     -2.975090  18 C  s                87      2.728384  10 C  s         
    89      2.395539  10 C  py               44     -2.364879   5 C  py        
    42      2.323680   5 C  s                60     -2.226526   7 C  s         
   160      2.086671  18 C  px               15     -2.075234   2 C  s         
    90      2.078716  10 C  pz               16     -2.023409   2 C  px        
 
 Vector  229  Occ=0.000000D+00  E= 1.527951D+00
              MO Center=  7.3D-01,  1.2D+00, -4.9D-02, r^2= 9.4D+00
   Bfn.  Coefficient  Atom+Function         Bfn.  Coefficient  Atom+Function  
  ----- ------------  ---------------      ----- ------------  ---------------
    60      3.314604   7 C  s               151     -3.023820  17 C  px        
   150     -2.502505  17 C  s               153      2.259808  17 C  pz        
     6     -2.181391   1 C  s                 7      2.165466   1 C  px        
   152     -2.149162  17 C  py              177     -2.038011  20 C  s         
    51      1.799529   6 C  s                63      1.788203   7 C  pz        
 
 Vector  230  Occ=0.000000D+00  E= 1.544664D+00
              MO Center= -1.3D-01, -5.5D-01,  6.3D-02, r^2= 1.0D+01
   Bfn.  Coefficient  Atom+Function         Bfn.  Coefficient  Atom+Function  
  ----- ------------  ---------------      ----- ------------  ---------------
    51      1.736249   6 C  s               159     -1.556387  18 C  s         
    79     -1.472369   9 C  px              141     -1.459058  16 C  s         
    33     -1.378561   4 C  s               177      1.369077  20 C  s         
    61     -1.299165   7 C  px              162      1.289077  18 C  pz        
   153      1.236314  17 C  pz               15     -1.214587   2 C  s         
 
 Vector  231  Occ=0.000000D+00  E= 1.549703D+00
              MO Center=  8.6D-01,  1.2D+00, -3.7D-02, r^2= 1.0D+01
   Bfn.  Coefficient  Atom+Function         Bfn.  Coefficient  Atom+Function  
  ----- ------------  ---------------      ----- ------------  ---------------
    78      3.509197   9 C  s                24     -3.067165   3 C  s         
    27     -2.993071   3 C  pz               69     -2.818179   8 C  s         
   161     -2.775960  18 C  py               72      2.724073   8 C  pz        
    87     -2.347920  10 C  s                 6      2.224602   1 C  s         
    51      2.227853   6 C  s                 7     -2.115998   1 C  px        
 
 Vector  232  Occ=0.000000D+00  E= 1.574358D+00
              MO Center= -3.4D-01,  2.2D-01, -4.3D-02, r^2= 1.2D+01
   Bfn.  Coefficient  Atom+Function         Bfn.  Coefficient  Atom+Function  
  ----- ------------  ---------------      ----- ------------  ---------------
    78     -4.204296   9 C  s                60      4.058494   7 C  s         
    87      3.527548  10 C  s               153      3.332179  17 C  pz        
    42      2.513880   5 C  s                81      2.450641   9 C  pz        
   180     -2.397076  20 C  pz              162      2.301292  18 C  pz        
   179     -2.303560  20 C  py               63      2.234223   7 C  pz        
 
 Vector  233  Occ=0.000000D+00  E= 1.603302D+00
              MO Center= -2.4D-02, -1.5D+00, -7.8D-02, r^2= 6.7D+00
   Bfn.  Coefficient  Atom+Function         Bfn.  Coefficient  Atom+Function  
  ----- ------------  ---------------      ----- ------------  ---------------
   159      2.448256  18 C  s                96      2.387760  11 C  s         
   161     -2.351884  18 C  py              171     -2.329552  19 C  pz        
   132      2.298189  15 C  s               123     -2.105508  14 C  s         
    88     -1.979222  10 C  px              114     -1.762097  13 C  s         
   150     -1.753160  17 C  s                89      1.480432  10 C  py        
 
 Vector  234  Occ=0.000000D+00  E= 1.614120D+00
              MO Center=  2.9D-01, -1.1D+00, -2.3D-01, r^2= 7.7D+00
   Bfn.  Coefficient  Atom+Function         Bfn.  Coefficient  Atom+Function  
  ----- ------------  ---------------      ----- ------------  ---------------
   177      4.003985  20 C  s               160     -2.814845  18 C  px        
   162     -2.426863  18 C  pz               87     -2.371421  10 C  s         
   132     -2.327604  15 C  s                24     -2.073473   3 C  s         
   168      2.080897  19 C  s               179      1.690754  20 C  py        
   114     -1.610779  13 C  s               135      1.602684  15 C  pz        
 
 Vector  235  Occ=0.000000D+00  E= 1.643072D+00
              MO Center= -1.1D-01, -2.0D+00, -3.6D-02, r^2= 7.5D+00
   Bfn.  Coefficient  Atom+Function         Bfn.  Coefficient  Atom+Function  
  ----- ------------  ---------------      ----- ------------  ---------------
   123     -3.760404  14 C  s               105      3.553974  12 C  s         
   177     -2.957433  20 C  s               132     -2.863157  15 C  s         
   161     -2.769063  18 C  py               78      2.367021   9 C  s         
    69      1.846839   8 C  s               180      1.758217  20 C  pz        
   160      1.633814  18 C  px               97      1.473312  11 C  px        
 
 Vector  236  Occ=0.000000D+00  E= 1.768964D+00
              MO Center= -1.6D-01, -6.2D-01,  2.4D-03, r^2= 7.6D+00
   Bfn.  Coefficient  Atom+Function         Bfn.  Coefficient  Atom+Function  
  ----- ------------  ---------------      ----- ------------  ---------------
   151      5.969435  17 C  px              177      5.688808  20 C  s         
    69     -4.880011   8 C  s               141      4.714588  16 C  s         
   168     -3.815073  19 C  s               152      3.578068  17 C  py        
    72      3.273783   8 C  pz              180     -3.140924  20 C  pz        
    33      2.894759   4 C  s               178      2.711057  20 C  px        
 
 Vector  237  Occ=0.000000D+00  E= 1.790852D+00
              MO Center= -1.4D-01, -8.5D-01,  2.6D-01, r^2= 7.6D+00
   Bfn.  Coefficient  Atom+Function         Bfn.  Coefficient  Atom+Function  
  ----- ------------  ---------------      ----- ------------  ---------------
    69      5.154683   8 C  s                87     -5.035066  10 C  s         
   180      4.865666  20 C  pz              141      4.006147  16 C  s         
   162     -3.945243  18 C  pz              151     -3.858639  17 C  px        
   153     -3.712979  17 C  pz               51      3.143736   6 C  s         
    96     -3.155801  11 C  s               177     -2.935704  20 C  s         
 
 Vector  238  Occ=0.000000D+00  E= 1.900921D+00
              MO Center= -3.9D-03, -7.6D-01,  4.9D-01, r^2= 6.4D+00
   Bfn.  Coefficient  Atom+Function         Bfn.  Coefficient  Atom+Function  
  ----- ------------  ---------------      ----- ------------  ---------------
   177      4.679339  20 C  s               160     -3.507781  18 C  px        
   168     -3.136951  19 C  s                33     -2.795872   4 C  s         
   161      2.616079  18 C  py               24     -2.576020   3 C  s         
   170     -2.397803  19 C  py               51      2.202843   6 C  s         
    69      2.211711   8 C  s                87     -2.100737  10 C  s         
 
 Vector  239  Occ=0.000000D+00  E= 1.975329D+00
              MO Center= -5.1D-01,  1.6D+00, -1.2D-01, r^2= 1.1D+01
   Bfn.  Coefficient  Atom+Function         Bfn.  Coefficient  Atom+Function  
  ----- ------------  ---------------      ----- ------------  ---------------
    78     11.144115   9 C  s               159    -10.220587  18 C  s         
    15      9.768810   2 C  s                51     -9.616714   6 C  s         
    42     -9.351674   5 C  s                60     -8.673015   7 C  s         
    87      8.711805  10 C  s               150      8.292333  17 C  s         
    24      7.512648   3 C  s                 6     -7.158669   1 C  s         
 
 Vector  240  Occ=0.000000D+00  E= 1.985607D+00
              MO Center=  7.7D-01,  1.7D+00, -2.0D-01, r^2= 1.1D+01
   Bfn.  Coefficient  Atom+Function         Bfn.  Coefficient  Atom+Function  
  ----- ------------  ---------------      ----- ------------  ---------------
   150    -10.945847  17 C  s                69     10.884799   8 C  s         
    24    -10.545317   3 C  s                60     10.475325   7 C  s         
     6     10.318472   1 C  s                33     -9.513854   4 C  s         
    87      8.133904  10 C  s                51     -7.642233   6 C  s         
   159     -7.647197  18 C  s                15      7.576203   2 C  s         
 
 Vector  241  Occ=0.000000D+00  E= 2.078873D+00
              MO Center= -2.4D-01, -2.0D+00,  6.7D-02, r^2= 7.2D+00
   Bfn.  Coefficient  Atom+Function         Bfn.  Coefficient  Atom+Function  
  ----- ------------  ---------------      ----- ------------  ---------------
   177      7.171378  20 C  s               114      5.447131  13 C  s         
    96     -5.360183  11 C  s                78     -4.726780   9 C  s         
   123     -4.735225  14 C  s                51      4.008455   6 C  s         
   161      3.787804  18 C  py               15     -3.392202   2 C  s         
    42      3.361366   5 C  s               160     -3.162686  18 C  px        
 
 Vector  242  Occ=0.000000D+00  E= 2.156351D+00
              MO Center= -2.1D-02, -2.2D+00, -8.2D-02, r^2= 5.4D+00
   Bfn.  Coefficient  Atom+Function         Bfn.  Coefficient  Atom+Function  
  ----- ------------  ---------------      ----- ------------  ---------------
   132      6.787411  15 C  s               168     -6.006659  19 C  s         
   105      5.803708  12 C  s               123     -3.533120  14 C  s         
   114     -2.801767  13 C  s               161      2.355920  18 C  py        
    78     -2.245643   9 C  s                51      2.187179   6 C  s         
   160     -2.091178  18 C  px              177      2.007870  20 C  s         
 
 Vector  243  Occ=0.000000D+00  E= 2.408912D+00
              MO Center= -5.8D-02, -2.8D-01,  7.4D-01, r^2= 4.7D+00
   Bfn.  Coefficient  Atom+Function         Bfn.  Coefficient  Atom+Function  
  ----- ------------  ---------------      ----- ------------  ---------------
   177     16.377471  20 C  s               195     -5.262662  22 O  s         
   168     -5.091866  19 C  s               160     -4.213673  18 C  px        
   153     -4.123004  17 C  pz               60     -3.569044   7 C  s         
    96      3.350302  11 C  s               161      3.006588  18 C  py        
   114     -2.864526  13 C  s               173     -2.845307  20 C  s         
 
 Vector  244  Occ=0.000000D+00  E= 2.549772D+00
              MO Center=  1.0D-01, -2.5D+00, -1.3D-01, r^2= 3.9D+00
   Bfn.  Coefficient  Atom+Function         Bfn.  Coefficient  Atom+Function  
  ----- ------------  ---------------      ----- ------------  ---------------
   141      9.645237  16 C  s               168     -8.159713  19 C  s         
   186     -6.591535  21 N  s               105     -5.629222  12 C  s         
   132      5.175433  15 C  s                96     -4.892616  11 C  s         
   123      4.458308  14 C  s               177      3.968381  20 C  s         
   114      3.617638  13 C  s               142      3.382767  16 C  px        
 

 center of mass
 --------------
 x =   0.01691992 y =   0.06936800 z =   0.01020286

 moments of inertia (a.u.)
 ------------------
        6468.221082966615           0.000000000002          -0.000000000002
           0.000000000002        4774.644932993465           0.000000000001
          -0.000000000002           0.000000000001        9046.666054023844
 
     Multipole analysis of the density
     ---------------------------------
 
     L   x y z        total         alpha         beta         nuclear
     -   - - -        -----         -----         ----         -------
     0   0 0 0     -0.000000    -79.000000    -79.000000    158.000000
 
     1   1 0 0     -1.079210     -0.539605     -0.539605      0.000000
     1   0 1 0      0.625023      0.312512      0.312512     -0.000000
     1   0 0 1     -0.047294     -0.023647     -0.023647     -0.000000
 
     2   2 0 0    -95.510660  -1064.589795  -1064.589795   2033.668930
     2   1 1 0      3.382850     -6.499439     -6.499439     16.381728
     2   1 0 1      0.233772     -2.590768     -2.590768      5.415307
     2   0 2 0    -99.555517  -1542.741029  -1542.741029   2985.926541
     2   0 1 1      1.747913     -2.045112     -2.045112      5.838137
     2   0 0 2    -91.745325   -375.384086   -375.384086    659.022847
 

 Task  times  cpu:      342.2s     wall:      129.7s
 
 
                                NWChem Input Module
                                -------------------
 
 
 Summary of allocated global arrays
-----------------------------------
  No active global arrays



                         GA Statistics for process    0
                         ------------------------------

       create   destroy   get      put      acc     scatter   gather  read&inc
calls:  154      154     3.71e+05 8754     2.72e+05    0        0     1654     
number of processes/call 4.84e+00 2.92e+01 4.27e+00 0.00e+00 0.00e+00
bytes total:             2.06e+08 2.29e+07 1.18e+08 0.00e+00 0.00e+00 1.32e+04
bytes remote:            1.43e+08 8.36e+06 8.63e+07 0.00e+00 0.00e+00 0.00e+00
Max memory consumed for GA by this process: 4953056 bytes
 
MA_summarize_allocated_blocks: starting scan ...
heap block 'gridpts', handle 100, address 0x11f73968:
	type of elements:		double precision
	number of elements:		6291456
	address of client space:	0x11f739c0
	index for client space:		16870725
	total number of bytes:		50331744
MA_summarize_allocated_blocks: scan completed: 1 heap block, 0 stack blocks
MA usage statistics:

	allocation statistics:
					      heap	     stack
					      ----	     -----
	current number of blocks	         1	         0
	maximum number of blocks	        21	        53
	current total bytes		  50331744	         0
	maximum total bytes		  58865352	  22539016
	maximum total K-bytes		     58866	     22540
	maximum total M-bytes		        59	        23
 
 
                                     CITATION
                                     --------
                Please cite the following reference when publishing
                           results obtained with NWChem:
 
                 M. Valiev, E.J. Bylaska, N. Govind, K. Kowalski,
              T.P. Straatsma, H.J.J. van Dam, D. Wang, J. Nieplocha,
                        E. Apra, T.L. Windus, W.A. de Jong
                 "NWChem: a comprehensive and scalable open-source
                  solution for large scale molecular simulations"
                      Comput. Phys. Commun. 181, 1477 (2010)
                           doi:10.1016/j.cpc.2010.04.018
 
                                      AUTHORS
                                      -------
          E. Apra, E. J. Bylaska, W. A. de Jong, N. Govind, K. Kowalski,
       T. P. Straatsma, M. Valiev, H. J. J. van Dam, D. Wang, T. L. Windus,
        J. Hammond, J. Autschbach, K. Bhaskaran-Nair, J. Brabec, K. Lopata,
    S. A. Fischer, S. Krishnamoorthy, M. Jacquelin, W. Ma, M. Klemm, O. Villa,
      Y. Chen, V. Anisimov, F. Aquino, S. Hirata, M. T. Hackler, V. Konjkov,
            D. Mejia-Rodriguez, T. Risthaus, M. Malagoli, A. Marenich,
   A. Otero-de-la-Roza, J. Mullin, P. Nichols, R. Peverati, J. Pittner, Y. Zhao,
        P.-D. Fan, A. Fonari, M. J. Williamson, R. J. Harrison, J. R. Rehr,
      M. Dupuis, D. Silverstein, D. M. A. Smith, J. Nieplocha, V. Tipparaju,
    M. Krishnan, B. E. Van Kuiken, A. Vazquez-Mayagoitia, L. Jensen, M. Swart,
      Q. Wu, T. Van Voorhis, A. A. Auer, M. Nooijen, L. D. Crosby, E. Brown,
      G. Cisneros, G. I. Fann, H. Fruchtl, J. Garza, K. Hirao, R. A. Kendall,
      J. A. Nichols, K. Tsemekhman, K. Wolinski, J. Anchell, D. E. Bernholdt,
      P. Borowski, T. Clark, D. Clerc, H. Dachsel, M. J. O. Deegan, K. Dyall,
    D. Elwood, E. Glendening, M. Gutowski, A. C. Hess, J. Jaffe, B. G. Johnson,
     J. Ju, R. Kobayashi, R. Kutteh, Z. Lin, R. Littlefield, X. Long, B. Meng,
      T. Nakajima, S. Niu, L. Pollack, M. Rosing, K. Glaesemann, G. Sandrone,
      M. Stave, H. Taylor, G. Thomas, J. H. van Lenthe, A. T. Wong, Z. Zhang.

 Total times  cpu:      343.9s     wall:      130.4s
