 argument  1 = Frag-00000004.nw
  NWChem w/ OpenMP: maximum threads =    7
                                         
                                         
 
 
              Northwest Computational Chemistry Package (NWChem) 6.8
              ------------------------------------------------------
 
 
                    Environmental Molecular Sciences Laboratory
                       Pacific Northwest National Laboratory
                                Richland, WA 99352
 
                              Copyright (c) 1994-2018
                       Pacific Northwest National Laboratory
                            Battelle Memorial Institute
 
             NWChem is an open-source computational chemistry package
                        distributed under the terms of the
                      Educational Community License (ECL) 2.0
             A copy of the license is included with this distribution
                              in the LICENSE.TXT file
 
                                  ACKNOWLEDGMENT
                                  --------------

            This software and its documentation were developed at the
            EMSL at Pacific Northwest National Laboratory, a multiprogram
            national laboratory, operated for the U.S. Department of Energy
            by Battelle under Contract Number DE-AC05-76RL01830. Support
            for this work was provided by the Department of Energy Office
            of Biological and Environmental Research, Office of Basic
            Energy Sciences, and the Office of Advanced Scientific Computing.


           Job information
           ---------------

    hostname        = i10r3n17
    program         = /public/software/apps/nwchem-DCU/6.8.1/hpcx-2.4.1-intel2017/bin/LINUX64/nwchem
    date            = Sat Mar 19 20:05:43 2022

    compiled        = Wed_Feb_19_20:38:21_2020
    source          = /public/software/apps/nwchem-DCU/6.8.1/hpcx-2.4.1-intel2017
    nwchem branch   = Development
    nwchem revision = nwchem_on_git-947-g0b42727
    ga revision     = 5.7.0
    use scalapack   = F
    input           = Frag-00000004.nw
    prefix          = LoadBalanceApplication.
    data base       = ./LoadBalanceApplication.db
    status          = startup
    nproc           =        4
    time left       =     -1s



           Memory information
           ------------------

    heap     =   13107200 doubles =    100.0 Mbytes
    stack    =   13107197 doubles =    100.0 Mbytes
    global   =   26214400 doubles =    200.0 Mbytes (distinct from heap & stack)
    total    =   52428797 doubles =    400.0 Mbytes
    verify   = yes
    hardfail = no 


           Directory information
           ---------------------
 
  0 permanent = .
  0 scratch   = .
 
 
 
 
                                NWChem Input Module
                                -------------------
 
 
                                   Frag-00000004
                                   -------------

 Scaling coordinates for geometry "geometry" by  1.889725989
 (inverse scale =  0.529177249)

 C1  symmetry detected

          ------
          auto-z
          ------
  no constraints, skipping   0.000000000000000E+000
  no constraints, skipping   0.000000000000000E+000
 
 
                             Geometry "geometry" -> ""
                             -------------------------
 
 Output coordinates in angstroms (scale by  1.889725989 to convert to a.u.)
 
  No.       Tag          Charge          X              Y              Z
 ---- ---------------- ---------- -------------- -------------- --------------
    1 C                    6.0000    -0.99401033     4.39680417    -0.00264715
    2 C                    6.0000    -1.69501866     3.21087960    -0.00314896
    3 C                    6.0000     1.02955882     3.21607868     0.00038840
    4 C                    6.0000     0.34293804     2.02473523    -0.00090972
    5 C                    6.0000    -1.03410501     1.98774344    -0.00068244
    6 O                    8.0000     0.17642577    -5.07426923     0.00160420
    7 C                    6.0000     0.38456121     4.43464985    -0.00116136
    8 O                    8.0000    -1.70837673     0.85821708    -0.00236623
    9 C                    6.0000     1.02403030     0.81265628     0.00080694
   10 F                    9.0000     1.01225509     5.63141438    -0.00135742
   11 O                    8.0000     2.28344268     0.79782283     0.00236070
   12 N                    7.0000     2.27976489    -4.17882885     0.00361680
   13 C                    6.0000    -1.18228257    -2.66347704    -0.00001972
   14 C                    6.0000     0.19205537    -2.74625881     0.00115903
   15 C                    6.0000     0.90338111    -1.56778368     0.00142204
   16 C                    6.0000     0.25932074    -0.33825320    -0.00000553
   17 C                    6.0000    -1.11836644    -0.31450521    -0.00029240
   18 N                    7.0000    -1.82445443    -1.46878083    -0.00153007
   19 N                    7.0000    -1.89040313    -3.89551974     0.00020873
   20 C                    6.0000     0.86974014    -4.02948565     0.00226918
   21 H                    1.0000    -1.53682616     5.34730281    -0.00319222
   22 H                    1.0000    -2.77608389     3.20204914    -0.00318271
   23 H                    1.0000     2.09346362     3.20356863     0.00010234
   24 H                    1.0000     2.90756408    -3.74480063     0.69874678
   25 H                    1.0000     2.69499845    -4.76015287    -0.74317197
   26 H                    1.0000     1.98637278    -1.59616951     0.00194274
   27 H                    1.0000    -2.38907505    -4.18863181     0.86503798
   28 H                    1.0000    -1.94781116    -4.54085667    -0.81599379
 
      Atomic Mass 
      ----------- 
 
      C                 12.000000
      O                 15.994910
      F                 18.998400
      N                 14.003070
      H                  1.007825
 

 Effective nuclear repulsion energy (a.u.)    1468.9368500482

            Nuclear Dipole moment (a.u.) 
            ----------------------------
        X                 Y               Z
 ---------------- ---------------- ----------------
     0.0000000000     0.0000000000     0.0000000000
 


                                Z-matrix (autoz)
                                -------- 

 Units are Angstrom for bonds and degrees for angles
 
      Type          Name      I     J     K     L     M      Value
      ----------- --------  ----- ----- ----- ----- ----- ----------
    1 Stretch                  1     2                       1.37762
    2 Stretch                  1     7                       1.37909
    3 Stretch                  1    21                       1.09458
    4 Stretch                  2     5                       1.39028
    5 Stretch                  2    22                       1.08110
    6 Stretch                  3     4                       1.37505
    7 Stretch                  3     7                       1.37875
    8 Stretch                  3    23                       1.06398
    9 Stretch                  4     5                       1.37754
   10 Stretch                  4     9                       1.39033
   11 Stretch                  5     8                       1.31548
   12 Stretch                  6    20                       1.25390
   13 Stretch                  7    10                       1.35139
   14 Stretch                  8    17                       1.31278
   15 Stretch                  9    11                       1.25950
   16 Stretch                  9    16                       1.38180
   17 Stretch                 12    20                       1.41791
   18 Stretch                 12    24                       1.03234
   19 Stretch                 12    25                       1.03347
   20 Stretch                 13    14                       1.37683
   21 Stretch                 13    18                       1.35635
   22 Stretch                 13    19                       1.42104
   23 Stretch                 14    15                       1.37651
   24 Stretch                 14    20                       1.45118
   25 Stretch                 15    16                       1.38801
   26 Stretch                 15    26                       1.08336
   27 Stretch                 16    17                       1.37789
   28 Stretch                 17    18                       1.35311
   29 Stretch                 19    27                       1.04044
   30 Stretch                 19    28                       1.04209
   31 Bend                     1     2     5               121.02799
   32 Bend                     1     2    22               121.05563
   33 Bend                     1     7     3               116.32007
   34 Bend                     1     7    10               119.24917
   35 Bend                     2     1     7               122.16017
   36 Bend                     2     1    21               119.68230
   37 Bend                     2     5     4               116.84544
   38 Bend                     2     5     8               120.78036
   39 Bend                     3     4     5               121.49539
   40 Bend                     3     4     9               120.71071
   41 Bend                     3     7    10               124.43076
   42 Bend                     4     3     7               122.15069
   43 Bend                     4     3    23               119.28292
   44 Bend                     4     5     8               122.37386
   45 Bend                     4     9    11               120.00739
   46 Bend                     4     9    16               117.06576
   47 Bend                     5     2    22               117.91624
   48 Bend                     5     4     9               117.79372
   49 Bend                     5     8    17               122.45716
   50 Bend                     6    20    12               117.52215
   51 Bend                     6    20    14               118.59288
   52 Bend                     7     1    21               118.15753
   53 Bend                     7     3    23               118.56621
   54 Bend                     8    17    16               117.69503
   55 Bend                     8    17    18               121.83758
   56 Bend                     9    16    15               118.75158
   57 Bend                     9    16    17               122.61409
   58 Bend                    11     9    16               122.92684
   59 Bend                    12    20    14               123.88496
   60 Bend                    13    14    15               117.66813
   61 Bend                    13    14    20               121.28598
   62 Bend                    13    18    17               120.28626
   63 Bend                    13    19    27               118.89580
   64 Bend                    13    19    28               124.34925
   65 Bend                    14    13    18               121.70589
   66 Bend                    14    13    19               116.44127
   67 Bend                    14    15    16               121.23812
   68 Bend                    14    15    26               119.61371
   69 Bend                    15    14    20               121.04589
   70 Bend                    15    16    17               118.63427
   71 Bend                    16    15    26               119.14815
   72 Bend                    16    17    18               120.46722
   73 Bend                    18    13    19               121.85284
   74 Bend                    20    12    24               124.13252
   75 Bend                    20    12    25               117.26533
   76 Bend                    24    12    25               118.60212
   77 Bend                    27    19    28               116.75487
   78 Torsion                  1     2     5     4          -0.14754
   79 Torsion                  1     2     5     8        -179.93959
   80 Torsion                  1     7     3     4           0.06736
   81 Torsion                  1     7     3    23         179.91039
   82 Torsion                  2     1     7     3          -0.02716
   83 Torsion                  2     1     7    10         179.97006
   84 Torsion                  2     5     4     3           0.18794
   85 Torsion                  2     5     4     9        -179.96624
   86 Torsion                  2     5     8    17         179.99191
   87 Torsion                  3     4     5     8         179.97640
   88 Torsion                  3     4     9    11          -0.06417
   89 Torsion                  3     4     9    16         179.96904
   90 Torsion                  3     7     1    21         179.95801
   91 Torsion                  4     3     7    10        -179.92970
   92 Torsion                  4     5     2    22         179.98979
   93 Torsion                  4     5     8    17           0.21160
   94 Torsion                  4     9    16    15         179.98904
   95 Torsion                  4     9    16    17          -0.10405
   96 Torsion                  5     2     1     7           0.07138
   97 Torsion                  5     2     1    21        -179.91356
   98 Torsion                  5     4     3     7          -0.15429
   99 Torsion                  5     4     3    23        -179.99623
  100 Torsion                  5     4     9    11        -179.91126
  101 Torsion                  5     4     9    16           0.12195
  102 Torsion                  5     8    17    16          -0.17852
  103 Torsion                  5     8    17    18         179.97341
  104 Torsion                  6    20    12    24        -125.63137
  105 Torsion                  6    20    12    25          54.42530
  106 Torsion                  6    20    14    13           0.02773
  107 Torsion                  6    20    14    15        -179.98067
  108 Torsion                  7     1     2    22         179.92973
  109 Torsion                  7     3     4     9        -179.99565
  110 Torsion                  8     5     2    22           0.19774
  111 Torsion                  8     5     4     9          -0.17778
  112 Torsion                  8    17    16     9           0.12832
  113 Torsion                  8    17    16    15        -179.96467
  114 Torsion                  8    17    18    13         179.96541
  115 Torsion                  9     4     3    23           0.16241
  116 Torsion                  9    16    15    14         179.97779
  117 Torsion                  9    16    15    26          -0.07209
  118 Torsion                  9    16    17    18         179.97858
  119 Torsion                 10     7     1    21          -0.04477
  120 Torsion                 10     7     3    23          -0.08667
  121 Torsion                 11     9    16    15           0.02331
  122 Torsion                 11     9    16    17         179.93021
  123 Torsion                 12    20    14    13        -179.99460
  124 Torsion                 12    20    14    15          -0.00300
  125 Torsion                 13    14    15    16          -0.02591
  126 Torsion                 13    14    15    26        -179.97581
  127 Torsion                 13    18    17    16           0.12148
  128 Torsion                 14    13    18    17          -0.07971
  129 Torsion                 14    13    19    27         108.25849
  130 Torsion                 14    13    19    28         -71.64297
  131 Torsion                 14    15    16    17           0.06713
  132 Torsion                 14    20    12    24          54.39074
  133 Torsion                 14    20    12    25        -125.55258
  134 Torsion                 15    14    13    18           0.03133
  135 Torsion                 15    14    13    19        -179.97868
  136 Torsion                 15    16    17    18          -0.11441
  137 Torsion                 16    15    14    20         179.98219
  138 Torsion                 17    16    15    26        -179.98275
  139 Torsion                 17    18    13    19         179.93084
  140 Torsion                 18    13    14    20        -179.97679
  141 Torsion                 18    13    19    27         -71.75154
  142 Torsion                 18    13    19    28         108.34701
  143 Torsion                 19    13    14    20           0.01320
  144 Torsion                 20    14    15    26           0.03230
  145 Torsion                 21     1     2    22          -0.05522
 
 
            XYZ format geometry
            -------------------
    28
 geometry
 C                    -0.99401033     4.39680417    -0.00264715
 C                    -1.69501866     3.21087960    -0.00314896
 C                     1.02955882     3.21607868     0.00038840
 C                     0.34293804     2.02473523    -0.00090972
 C                    -1.03410501     1.98774344    -0.00068244
 O                     0.17642577    -5.07426923     0.00160420
 C                     0.38456121     4.43464985    -0.00116136
 O                    -1.70837673     0.85821708    -0.00236623
 C                     1.02403030     0.81265628     0.00080694
 F                     1.01225509     5.63141438    -0.00135742
 O                     2.28344268     0.79782283     0.00236070
 N                     2.27976489    -4.17882885     0.00361680
 C                    -1.18228257    -2.66347704    -0.00001972
 C                     0.19205537    -2.74625881     0.00115903
 C                     0.90338111    -1.56778368     0.00142204
 C                     0.25932074    -0.33825320    -0.00000553
 C                    -1.11836644    -0.31450521    -0.00029240
 N                    -1.82445443    -1.46878083    -0.00153007
 N                    -1.89040313    -3.89551974     0.00020873
 C                     0.86974014    -4.02948565     0.00226918
 H                    -1.53682616     5.34730281    -0.00319222
 H                    -2.77608389     3.20204914    -0.00318271
 H                     2.09346362     3.20356863     0.00010234
 H                     2.90756408    -3.74480063     0.69874678
 H                     2.69499845    -4.76015287    -0.74317197
 H                     1.98637278    -1.59616951     0.00194274
 H                    -2.38907505    -4.18863181     0.86503798
 H                    -1.94781116    -4.54085667    -0.81599379
 
 ==============================================================================
                                internuclear distances
 ------------------------------------------------------------------------------
       center one      |      center two      | atomic units |  angstroms
 ------------------------------------------------------------------------------
    2 C                |   1 C                |     2.60332  |     1.37762
    4 C                |   3 C                |     2.59846  |     1.37505
    5 C                |   2 C                |     2.62725  |     1.39028
    5 C                |   4 C                |     2.60317  |     1.37754
    7 C                |   1 C                |     2.60611  |     1.37909
    7 C                |   3 C                |     2.60545  |     1.37875
    8 O                |   5 C                |     2.48589  |     1.31548
    9 C                |   4 C                |     2.62735  |     1.39033
   10 F                |   7 C                |     2.55375  |     1.35139
   11 O                |   9 C                |     2.38011  |     1.25950
   14 C                |  13 C                |     2.60183  |     1.37683
   15 C                |  14 C                |     2.60123  |     1.37651
   16 C                |   9 C                |     2.61123  |     1.38180
   16 C                |  15 C                |     2.62295  |     1.38801
   17 C                |   8 O                |     2.48080  |     1.31278
   17 C                |  16 C                |     2.60384  |     1.37789
   18 N                |  13 C                |     2.56313  |     1.35635
   18 N                |  17 C                |     2.55701  |     1.35311
   19 N                |  13 C                |     2.68538  |     1.42104
   20 C                |   6 O                |     2.36952  |     1.25390
   20 C                |  12 N                |     2.67947  |     1.41791
   20 C                |  14 C                |     2.74234  |     1.45118
   21 H                |   1 C                |     2.06845  |     1.09458
   22 H                |   2 C                |     2.04299  |     1.08110
   23 H                |   3 C                |     2.01063  |     1.06398
   24 H                |  12 N                |     1.95083  |     1.03234
   25 H                |  12 N                |     1.95297  |     1.03347
   26 H                |  15 C                |     2.04726  |     1.08336
   27 H                |  19 N                |     1.96615  |     1.04044
   28 H                |  19 N                |     1.96926  |     1.04209
 ------------------------------------------------------------------------------
                         number of included internuclear distances:         30
 ==============================================================================



 ==============================================================================
                                 internuclear angles
 ------------------------------------------------------------------------------
        center 1       |       center 2       |       center 3       |  degrees
 ------------------------------------------------------------------------------
    2 C                |   1 C                |   7 C                |   122.16
    2 C                |   1 C                |  21 H                |   119.68
    7 C                |   1 C                |  21 H                |   118.16
    1 C                |   2 C                |   5 C                |   121.03
    1 C                |   2 C                |  22 H                |   121.06
    5 C                |   2 C                |  22 H                |   117.92
    4 C                |   3 C                |   7 C                |   122.15
    4 C                |   3 C                |  23 H                |   119.28
    7 C                |   3 C                |  23 H                |   118.57
    3 C                |   4 C                |   5 C                |   121.50
    3 C                |   4 C                |   9 C                |   120.71
    5 C                |   4 C                |   9 C                |   117.79
    2 C                |   5 C                |   4 C                |   116.85
    2 C                |   5 C                |   8 O                |   120.78
    4 C                |   5 C                |   8 O                |   122.37
    1 C                |   7 C                |   3 C                |   116.32
    1 C                |   7 C                |  10 F                |   119.25
    3 C                |   7 C                |  10 F                |   124.43
    5 C                |   8 O                |  17 C                |   122.46
    4 C                |   9 C                |  11 O                |   120.01
    4 C                |   9 C                |  16 C                |   117.07
   11 O                |   9 C                |  16 C                |   122.93
   20 C                |  12 N                |  24 H                |   124.13
   20 C                |  12 N                |  25 H                |   117.27
   24 H                |  12 N                |  25 H                |   118.60
   14 C                |  13 C                |  18 N                |   121.71
   14 C                |  13 C                |  19 N                |   116.44
   18 N                |  13 C                |  19 N                |   121.85
   13 C                |  14 C                |  15 C                |   117.67
   13 C                |  14 C                |  20 C                |   121.29
   15 C                |  14 C                |  20 C                |   121.05
   14 C                |  15 C                |  16 C                |   121.24
   14 C                |  15 C                |  26 H                |   119.61
   16 C                |  15 C                |  26 H                |   119.15
    9 C                |  16 C                |  15 C                |   118.75
    9 C                |  16 C                |  17 C                |   122.61
   15 C                |  16 C                |  17 C                |   118.63
    8 O                |  17 C                |  16 C                |   117.70
    8 O                |  17 C                |  18 N                |   121.84
   16 C                |  17 C                |  18 N                |   120.47
   13 C                |  18 N                |  17 C                |   120.29
   13 C                |  19 N                |  27 H                |   118.90
   13 C                |  19 N                |  28 H                |   124.35
   27 H                |  19 N                |  28 H                |   116.75
    6 O                |  20 C                |  12 N                |   117.52
    6 O                |  20 C                |  14 C                |   118.59
   12 N                |  20 C                |  14 C                |   123.88
 ------------------------------------------------------------------------------
                            number of included internuclear angles:         47
 ==============================================================================





 Summary of "ao basis" -> "" (cartesian)
 ------------------------------------------------------------------------------
       Tag                 Description            Shells   Functions and Types
 ---------------- ------------------------------  ------  ---------------------
 *                           6-31g                    on all atoms 


 
                                 NWChem DFT Module
                                 -----------------
 
 
                                   Frag-00000004
 
 
                      Basis "ao basis" -> "ao basis" (cartesian)
                      -----
  C (Carbon)
  ----------
            Exponent  Coefficients 
       -------------- ---------------------------------------------------------
  1 S  3.04752490E+03  0.001835
  1 S  4.57369510E+02  0.014037
  1 S  1.03948690E+02  0.068843
  1 S  2.92101550E+01  0.232184
  1 S  9.28666300E+00  0.467941
  1 S  3.16392700E+00  0.362312
 
  2 S  7.86827240E+00 -0.119332
  2 S  1.88128850E+00 -0.160854
  2 S  5.44249300E-01  1.143456
 
  3 P  7.86827240E+00  0.068999
  3 P  1.88128850E+00  0.316424
  3 P  5.44249300E-01  0.744308
 
  4 S  1.68714400E-01  1.000000
 
  5 P  1.68714400E-01  1.000000
 
  O (Oxygen)
  ----------
            Exponent  Coefficients 
       -------------- ---------------------------------------------------------
  1 S  5.48467170E+03  0.001831
  1 S  8.25234950E+02  0.013950
  1 S  1.88046960E+02  0.068445
  1 S  5.29645000E+01  0.232714
  1 S  1.68975700E+01  0.470193
  1 S  5.79963530E+00  0.358521
 
  2 S  1.55396160E+01 -0.110778
  2 S  3.59993360E+00 -0.148026
  2 S  1.01376180E+00  1.130767
 
  3 P  1.55396160E+01  0.070874
  3 P  3.59993360E+00  0.339753
  3 P  1.01376180E+00  0.727159
 
  4 S  2.70005800E-01  1.000000
 
  5 P  2.70005800E-01  1.000000
 
  F (Fluorine)
  ------------
            Exponent  Coefficients 
       -------------- ---------------------------------------------------------
  1 S  7.00171309E+03  0.001820
  1 S  1.05136609E+03  0.013916
  1 S  2.39285690E+02  0.068405
  1 S  6.73974453E+01  0.233186
  1 S  2.15199573E+01  0.471267
  1 S  7.40310130E+00  0.356619
 
  2 S  2.08479528E+01 -0.108507
  2 S  4.80830834E+00 -0.146452
  2 S  1.34406986E+00  1.128689
 
  3 P  2.08479528E+01  0.071629
  3 P  4.80830834E+00  0.345912
  3 P  1.34406986E+00  0.722470
 
  4 S  3.58151393E-01  1.000000
 
  5 P  3.58151393E-01  1.000000
 
  N (Nitrogen)
  ------------
            Exponent  Coefficients 
       -------------- ---------------------------------------------------------
  1 S  4.17351100E+03  0.001835
  1 S  6.27457900E+02  0.013995
  1 S  1.42902100E+02  0.068587
  1 S  4.02343300E+01  0.232241
  1 S  1.28202100E+01  0.469070
  1 S  4.39043700E+00  0.360455
 
  2 S  1.16263580E+01 -0.114961
  2 S  2.71628000E+00 -0.169118
  2 S  7.72218000E-01  1.145852
 
  3 P  1.16263580E+01  0.067580
  3 P  2.71628000E+00  0.323907
  3 P  7.72218000E-01  0.740895
 
  4 S  2.12031300E-01  1.000000
 
  5 P  2.12031300E-01  1.000000
 
  H (Hydrogen)
  ------------
            Exponent  Coefficients 
       -------------- ---------------------------------------------------------
  1 S  1.87311370E+01  0.033495
  1 S  2.82539370E+00  0.234727
  1 S  6.40121700E-01  0.813757
 
  2 S  1.61277800E-01  1.000000
 


 Summary of "ao basis" -> "ao basis" (cartesian)
 ------------------------------------------------------------------------------
       Tag                 Description            Shells   Functions and Types
 ---------------- ------------------------------  ------  ---------------------
 C                           6-31g                   5        9   3s2p
 O                           6-31g                   5        9   3s2p
 F                           6-31g                   5        9   3s2p
 N                           6-31g                   5        9   3s2p
 H                           6-31g                   2        2   2s




 Summary of "ao basis" -> "ao basis" (cartesian)
 ------------------------------------------------------------------------------
       Tag                 Description            Shells   Functions and Types
 ---------------- ------------------------------  ------  ---------------------
 C                           6-31g                   5        9   3s2p
 O                           6-31g                   5        9   3s2p
 F                           6-31g                   5        9   3s2p
 N                           6-31g                   5        9   3s2p
 H                           6-31g                   2        2   2s


  Caching 1-el integrals 
 
            General Information
            -------------------
          SCF calculation type: DFT
          Wavefunction type:  closed shell.
          No. of atoms     :    28
          No. of electrons :   140
           Alpha electrons :    70
            Beta electrons :    70
          Charge           :     0
          Spin multiplicity:     1
          Use of symmetry is: off; symmetry adaption is: off
          Maximum number of iterations:  30
          AO basis - number of functions:   196
                     number of shells:   116
          Convergence on energy requested:  1.00D-06
          Convergence on density requested:  1.00D-05
          Convergence on gradient requested:  5.00D-04
 
              XC Information
              --------------
                       M06-2X Method XC Functional
                     Hartree-Fock (Exact) Exchange  0.540          
                        M06-2X Exchange Functional  1.000          
                      M06-2X Correlation Potential  1.000          
 
             Grid Information
             ----------------
          Grid used for XC integration:  medium    
          Radial quadrature: Mura-Knowles        
          Angular quadrature: Lebedev. 
          Tag              B.-S. Rad. Rad. Pts. Rad. Cut. Ang. Pts.
          ---              ---------- --------- --------- ---------
          C                   0.70       49          14.0       434
          O                   0.60       49          13.0       434
          F                   0.50       49          12.0       434
          N                   0.65       49          14.0       434
          H                   0.35       45          14.0       434
          Grid pruning is: on 
          Number of quadrature shells:  1340
          Spatial weights used:  Erf1
 
          Convergence Information
          -----------------------
          Convergence aids based upon iterative change in 
          total energy or number of iterations. 
          Levelshifting, if invoked, occurs when the 
          HOMO/LUMO gap drops below (HL_TOL):  1.00D-02
          DIIS, if invoked, will attempt to extrapolate 
          using up to (NFOCK): 10 stored Fock matrices.

                    Damping( 0%)  Levelshifting(0.5)       DIIS
                  --------------- ------------------- ---------------
          dE  on:    start            ASAP                start   
          dE off:    2 iters         30 iters            30 iters 

 
      Screening Tolerance Information
      -------------------------------
          Density screening/tol_rho:  1.00D-10
          AO Gaussian exp screening on grid/accAOfunc:  14
          CD Gaussian exp screening on grid/accCDfunc:  20
          XC Gaussian exp screening on grid/accXCfunc:  20
          Schwarz screening/accCoul:  1.00D-08

 
      Superposition of Atomic Density Guess
      -------------------------------------
 
 Sum of atomic energies:        -980.08576770
 
      Non-variational initial energy
      ------------------------------

 Total energy =    -993.027551
 1-e energy   =   -4258.395838
 2-e energy   =    1796.431436
 HOMO         =      -0.237397
 LUMO         =      -0.068319
 
   Time after variat. SCF:      2.9
   Time prior to 1st pass:      2.9

 Grid_pts file          = ./LoadBalanceApplication.gridpts.0
 Record size in doubles =  12289        No. of grid_pts per rec  =   3070
 Max. records in memory =     54        Max. recs in file   = 253312716


           Memory utilization after 1st SCF pass: 
           Heap Space remaining (MW):        6.08             6079224
          Stack Space remaining (MW):       13.11            13105116

   convergence    iter        energy       DeltaE   RMS-Dens  Diis-err    time
 ---------------- ----- ----------------- --------- --------- ---------  ------
 d= 0,ls=0.0,diis     1   -988.7536814760 -2.46D+03  3.78D-02  3.59D+00     9.4
 d= 0,ls=0.0,diis     2   -988.1809750755  5.73D-01  2.65D-02  1.00D+01    15.7
 d= 0,ls=0.0,diis     3   -989.2366831497 -1.06D+00  3.03D-03  1.86D-01    22.0
 d= 0,ls=0.0,diis     4   -989.2521195145 -1.54D-02  1.37D-03  5.41D-02    28.3
 d= 0,ls=0.0,diis     5   -989.2574386368 -5.32D-03  3.56D-04  2.33D-03    35.0
  Resetting Diis
 d= 0,ls=0.0,diis     6   -989.2576701109 -2.31D-04  2.16D-04  4.67D-04    41.5
 d= 0,ls=0.0,diis     7   -989.2577263908 -5.63D-05  1.71D-04  1.25D-04    48.1
 d= 0,ls=0.0,diis     8   -989.2577100409  1.63D-05  8.72D-05  3.01D-04    54.6
 d= 0,ls=0.0,diis     9   -989.2577423042 -3.23D-05  1.54D-05  3.05D-06    61.6
 d= 0,ls=0.0,diis    10   -989.2577427629 -4.59D-07  1.44D-05  7.15D-07    68.2
 d= 0,ls=0.0,diis    11   -989.2577429153 -1.52D-07  2.65D-06  1.27D-07    74.9


         Total DFT energy =     -989.257742915252
      One electron energy =    -4265.404040497862
           Coulomb energy =     1937.528909726638
    Exchange-Corr. energy =     -130.319462192276
 Nuclear repulsion energy =     1468.936850048249

 Numeric. integr. density =      140.000046686966

     Total iterative time =     72.0s


 
                       DFT Final Molecular Orbital Analysis
                       ------------------------------------
 
 Vector    1  Occ=2.000000D+00  E=-2.527766D+01
              MO Center=  1.0D+00,  5.6D+00, -1.4D-03, r^2= 1.2D-02
   Bfn.  Coefficient  Atom+Function         Bfn.  Coefficient  Atom+Function  
  ----- ------------  ---------------      ----- ------------  ---------------
    82      0.995484  10 F  s         
 
 Vector    2  Occ=2.000000D+00  E=-1.974355D+01
              MO Center= -1.7D+00,  8.6D-01, -2.4D-03, r^2= 1.5D-02
   Bfn.  Coefficient  Atom+Function         Bfn.  Coefficient  Atom+Function  
  ----- ------------  ---------------      ----- ------------  ---------------
    64      0.995768   8 O  s                65      0.027697   8 O  s         
    69     -0.026975   8 O  s         
 
 Vector    3  Occ=2.000000D+00  E=-1.963048D+01
              MO Center=  2.3D+00,  8.0D-01,  2.4D-03, r^2= 1.5D-02
   Bfn.  Coefficient  Atom+Function         Bfn.  Coefficient  Atom+Function  
  ----- ------------  ---------------      ----- ------------  ---------------
    91      0.995782  11 O  s                92      0.026682  11 O  s         
 
 Vector    4  Occ=2.000000D+00  E=-1.962558D+01
              MO Center=  1.8D-01, -5.1D+00,  1.6D-03, r^2= 1.5D-02
   Bfn.  Coefficient  Atom+Function         Bfn.  Coefficient  Atom+Function  
  ----- ------------  ---------------      ----- ------------  ---------------
    46      0.995736   6 O  s                47      0.026149   6 O  s         
 
 Vector    5  Occ=2.000000D+00  E=-1.479089D+01
              MO Center= -1.8D+00, -1.5D+00, -1.5D-03, r^2= 2.0D-02
   Bfn.  Coefficient  Atom+Function         Bfn.  Coefficient  Atom+Function  
  ----- ------------  ---------------      ----- ------------  ---------------
   154      0.996131  18 N  s               159     -0.044132  18 N  s         
   155      0.030833  18 N  s         
 
 Vector    6  Occ=2.000000D+00  E=-1.477207D+01
              MO Center=  2.3D+00, -4.2D+00,  3.6D-03, r^2= 2.0D-02
   Bfn.  Coefficient  Atom+Function         Bfn.  Coefficient  Atom+Function  
  ----- ------------  ---------------      ----- ------------  ---------------
   100      0.995843  12 N  s               101      0.027864  12 N  s         
 
 Vector    7  Occ=2.000000D+00  E=-1.474127D+01
              MO Center= -1.9D+00, -3.9D+00,  2.1D-04, r^2= 2.0D-02
   Bfn.  Coefficient  Atom+Function         Bfn.  Coefficient  Atom+Function  
  ----- ------------  ---------------      ----- ------------  ---------------
   163      0.995841  19 N  s               164      0.028004  19 N  s         
 
 Vector    8  Occ=2.000000D+00  E=-1.069739D+01
              MO Center= -1.1D+00, -3.1D-01, -2.9D-04, r^2= 2.8D-02
   Bfn.  Coefficient  Atom+Function         Bfn.  Coefficient  Atom+Function  
  ----- ------------  ---------------      ----- ------------  ---------------
   145      0.995852  17 C  s               146      0.032552  17 C  s         
 
 Vector    9  Occ=2.000000D+00  E=-1.067858D+01
              MO Center=  8.7D-01, -4.0D+00,  2.3D-03, r^2= 2.8D-02
   Bfn.  Coefficient  Atom+Function         Bfn.  Coefficient  Atom+Function  
  ----- ------------  ---------------      ----- ------------  ---------------
   172      0.995744  20 C  s               173      0.030162  20 C  s         
 
 Vector   10  Occ=2.000000D+00  E=-1.066083D+01
              MO Center= -1.2D+00, -2.7D+00, -1.6D-05, r^2= 2.8D-02
   Bfn.  Coefficient  Atom+Function         Bfn.  Coefficient  Atom+Function  
  ----- ------------  ---------------      ----- ------------  ---------------
   109      0.995775  13 C  s               110      0.030725  13 C  s         
 
 Vector   11  Occ=2.000000D+00  E=-1.065938D+01
              MO Center= -1.0D+00,  2.0D+00, -6.8D-04, r^2= 2.8D-02
   Bfn.  Coefficient  Atom+Function         Bfn.  Coefficient  Atom+Function  
  ----- ------------  ---------------      ----- ------------  ---------------
    37      0.995852   5 C  s                42     -0.038524   5 C  s         
    38      0.033404   5 C  s         
 
 Vector   12  Occ=2.000000D+00  E=-1.065823D+01
              MO Center=  3.8D-01,  4.4D+00, -1.2D-03, r^2= 2.8D-02
   Bfn.  Coefficient  Atom+Function         Bfn.  Coefficient  Atom+Function  
  ----- ------------  ---------------      ----- ------------  ---------------
    55      0.995792   7 C  s                60     -0.038029   7 C  s         
    56      0.032084   7 C  s                24      0.025372   3 C  s         
 
 Vector   13  Occ=2.000000D+00  E=-1.064524D+01
              MO Center=  1.0D+00,  8.1D-01,  8.1D-04, r^2= 2.8D-02
   Bfn.  Coefficient  Atom+Function         Bfn.  Coefficient  Atom+Function  
  ----- ------------  ---------------      ----- ------------  ---------------
    73      0.995864   9 C  s                78     -0.040517   9 C  s         
    74      0.033188   9 C  s         
 
 Vector   14  Occ=2.000000D+00  E=-1.059561D+01
              MO Center=  9.0D-01, -1.6D+00,  1.4D-03, r^2= 3.1D-02
   Bfn.  Coefficient  Atom+Function         Bfn.  Coefficient  Atom+Function  
  ----- ------------  ---------------      ----- ------------  ---------------
   127      0.995053  15 C  s               132     -0.035625  15 C  s         
   128      0.031973  15 C  s               118      0.028533  14 C  s         
   136      0.026847  16 C  s         
 
 Vector   15  Occ=2.000000D+00  E=-1.058906D+01
              MO Center= -1.0D+00,  4.4D+00, -2.7D-03, r^2= 6.1D-02
   Bfn.  Coefficient  Atom+Function         Bfn.  Coefficient  Atom+Function  
  ----- ------------  ---------------      ----- ------------  ---------------
     1      0.986940   1 C  s                10      0.132106   2 C  s         
     6     -0.032591   1 C  s                 2      0.031286   1 C  s         
 
 Vector   16  Occ=2.000000D+00  E=-1.058622D+01
              MO Center= -1.7D+00,  3.2D+00, -3.1D-03, r^2= 6.1D-02
   Bfn.  Coefficient  Atom+Function         Bfn.  Coefficient  Atom+Function  
  ----- ------------  ---------------      ----- ------------  ---------------
    10      0.987023   2 C  s                 1     -0.132549   1 C  s         
    15     -0.038739   2 C  s                11      0.032052   2 C  s         
 
 Vector   17  Occ=2.000000D+00  E=-1.058260D+01
              MO Center=  2.6D-01, -3.3D-01, -7.1D-06, r^2= 6.0D-02
   Bfn.  Coefficient  Atom+Function         Bfn.  Coefficient  Atom+Function  
  ----- ------------  ---------------      ----- ------------  ---------------
   136      0.992723  16 C  s                28     -0.064870   4 C  s         
   141     -0.041852  16 C  s               118     -0.034122  14 C  s         
   137      0.032896  16 C  s               127     -0.026160  15 C  s         
 
 Vector   18  Occ=2.000000D+00  E=-1.058255D+01
              MO Center=  3.6D-01,  2.0D+00, -8.8D-04, r^2= 8.7D-02
   Bfn.  Coefficient  Atom+Function         Bfn.  Coefficient  Atom+Function  
  ----- ------------  ---------------      ----- ------------  ---------------
    28      0.984371   4 C  s                19      0.135062   3 C  s         
   136      0.065338  16 C  s                33     -0.040130   4 C  s         
    29      0.032245   4 C  s         
 
 Vector   19  Occ=2.000000D+00  E=-1.058226D+01
              MO Center=  1.9D-01, -2.7D+00,  1.2D-03, r^2= 3.6D-02
   Bfn.  Coefficient  Atom+Function         Bfn.  Coefficient  Atom+Function  
  ----- ------------  ---------------      ----- ------------  ---------------
   118      0.994823  14 C  s               123     -0.040004  14 C  s         
   136      0.033519  16 C  s               119      0.032600  14 C  s         
   127     -0.029843  15 C  s         
 
 Vector   20  Occ=2.000000D+00  E=-1.057975D+01
              MO Center=  1.0D+00,  3.2D+00,  3.6D-04, r^2= 6.2D-02
   Bfn.  Coefficient  Atom+Function         Bfn.  Coefficient  Atom+Function  
  ----- ------------  ---------------      ----- ------------  ---------------
    19      0.986567   3 C  s                28     -0.135720   4 C  s         
    24     -0.037733   3 C  s                20      0.032091   3 C  s         
 
 Vector   21  Occ=2.000000D+00  E=-1.385188D+00
              MO Center=  9.2D-01,  5.5D+00, -1.3D-03, r^2= 4.1D-01
   Bfn.  Coefficient  Atom+Function         Bfn.  Coefficient  Atom+Function  
  ----- ------------  ---------------      ----- ------------  ---------------
    87      0.551803  10 F  s                83      0.472772  10 F  s         
    82     -0.223961  10 F  s                56      0.119438   7 C  s         
    58      0.095666   7 C  py               85     -0.090560  10 F  py        
    89     -0.065031  10 F  py               55     -0.064042   7 C  s         
    62     -0.058671   7 C  py               57      0.048529   7 C  px        
 
 Vector   22  Occ=2.000000D+00  E=-1.319414D+00
              MO Center= -1.4D+00,  8.2D-01, -1.7D-03, r^2= 6.9D-01
   Bfn.  Coefficient  Atom+Function         Bfn.  Coefficient  Atom+Function  
  ----- ------------  ---------------      ----- ------------  ---------------
    69      0.511257   8 O  s                65      0.416828   8 O  s         
    64     -0.196228   8 O  s               146      0.154627  17 C  s         
    38      0.137170   5 C  s                66      0.124320   8 O  px        
   148      0.104526  17 C  py               40     -0.100573   5 C  py        
    70      0.086340   8 O  px              145     -0.078637  17 C  s         
 
 Vector   23  Occ=2.000000D+00  E=-1.175005D+00
              MO Center=  4.6D-01, -4.6D+00, -3.0D-03, r^2= 1.1D+00
   Bfn.  Coefficient  Atom+Function         Bfn.  Coefficient  Atom+Function  
  ----- ------------  ---------------      ----- ------------  ---------------
    51      0.403438   6 O  s                47      0.390813   6 O  s         
   173      0.248271  20 C  s                46     -0.178522   6 O  s         
    49      0.133090   6 O  py              175     -0.132383  20 C  py        
   172     -0.122030  20 C  s               101      0.089936  12 N  s         
    48      0.086453   6 O  px              174     -0.077203  20 C  px        
 
 Vector   24  Occ=2.000000D+00  E=-1.170355D+00
              MO Center=  1.8D+00,  7.6D-01,  1.9D-03, r^2= 1.0D+00
   Bfn.  Coefficient  Atom+Function         Bfn.  Coefficient  Atom+Function  
  ----- ------------  ---------------      ----- ------------  ---------------
    96      0.433050  11 O  s                92      0.395581  11 O  s         
    74      0.240302   9 C  s                91     -0.182386  11 O  s         
    93     -0.159031  11 O  px               75      0.151959   9 C  px        
    73     -0.123145   9 C  s                78      0.110054   9 C  s         
    79     -0.104769   9 C  px               97     -0.076931  11 O  px        
 
 Vector   25  Occ=2.000000D+00  E=-1.102504D+00
              MO Center= -1.2D+00, -1.6D+00,  1.9D-03, r^2= 2.2D+00
   Bfn.  Coefficient  Atom+Function         Bfn.  Coefficient  Atom+Function  
  ----- ------------  ---------------      ----- ------------  ---------------
   159      0.365565  18 N  s               155      0.291341  18 N  s         
   110      0.211779  13 C  s               146      0.172454  17 C  s         
   154     -0.144317  18 N  s               156      0.120833  18 N  px        
   148     -0.112416  17 C  py              109     -0.104345  13 C  s         
   119      0.093115  14 C  s                69     -0.085367   8 O  s         
 
 Vector   26  Occ=2.000000D+00  E=-1.018531D+00
              MO Center= -3.7D-01,  2.5D+00, -7.6D-04, r^2= 4.5D+00
   Bfn.  Coefficient  Atom+Function         Bfn.  Coefficient  Atom+Function  
  ----- ------------  ---------------      ----- ------------  ---------------
    29      0.198006   4 C  s                38      0.186917   5 C  s         
    11      0.160810   2 C  s                20      0.160184   3 C  s         
     2      0.151977   1 C  s                56      0.144190   7 C  s         
    15      0.113090   2 C  s                28     -0.101314   4 C  s         
     6      0.094592   1 C  s                37     -0.092595   5 C  s         
 
 Vector   27  Occ=2.000000D+00  E=-9.960810D-01
              MO Center=  1.3D+00, -3.8D+00,  5.0D-04, r^2= 4.0D+00
   Bfn.  Coefficient  Atom+Function         Bfn.  Coefficient  Atom+Function  
  ----- ------------  ---------------      ----- ------------  ---------------
   105      0.366081  12 N  s               101      0.345092  12 N  s         
   100     -0.164704  12 N  s               174      0.155704  20 C  px        
    51     -0.145516   6 O  s               164     -0.142579  19 N  s         
   168     -0.140288  19 N  s                47     -0.131790   6 O  s         
   187      0.103375  24 H  s               189      0.101128  25 H  s         
 
 Vector   28  Occ=2.000000D+00  E=-9.868692D-01
              MO Center= -6.8D-01, -2.6D+00,  5.8D-03, r^2= 7.0D+00
   Bfn.  Coefficient  Atom+Function         Bfn.  Coefficient  Atom+Function  
  ----- ------------  ---------------      ----- ------------  ---------------
   168      0.282617  19 N  s               164      0.272380  19 N  s         
   105      0.184610  12 N  s               110      0.154660  13 C  s         
   101      0.150379  12 N  s                51     -0.141575   6 O  s         
   146     -0.141242  17 C  s               163     -0.130401  19 N  s         
   137     -0.116472  16 C  s               114      0.113644  13 C  s         
 
 Vector   29  Occ=2.000000D+00  E=-9.596474D-01
              MO Center=  7.4D-02, -6.9D-01, -4.2D-04, r^2= 5.8D+00
   Bfn.  Coefficient  Atom+Function         Bfn.  Coefficient  Atom+Function  
  ----- ------------  ---------------      ----- ------------  ---------------
   137      0.221225  16 C  s               159     -0.218022  18 N  s         
   128      0.198291  15 C  s               155     -0.183993  18 N  s         
   132      0.155728  15 C  s               119      0.142315  14 C  s         
   147      0.134326  17 C  px               75     -0.117633   9 C  px        
    96     -0.113254  11 O  s               136     -0.112894  16 C  s         
 
 Vector   30  Occ=2.000000D+00  E=-9.231408D-01
              MO Center= -1.8D-01, -2.2D-01,  1.5D-03, r^2= 9.4D+00
   Bfn.  Coefficient  Atom+Function         Bfn.  Coefficient  Atom+Function  
  ----- ------------  ---------------      ----- ------------  ---------------
   119     -0.181138  14 C  s                29      0.168900   4 C  s         
   164      0.154430  19 N  s               168      0.152875  19 N  s         
   128     -0.148816  15 C  s               123     -0.137745  14 C  s         
    11     -0.133158   2 C  s                39      0.114715   5 C  px        
     2     -0.112114   1 C  s                75     -0.112068   9 C  px        
 
 Vector   31  Occ=2.000000D+00  E=-9.089983D-01
              MO Center= -6.9D-01,  1.8D+00, -7.8D-04, r^2= 8.1D+00
   Bfn.  Coefficient  Atom+Function         Bfn.  Coefficient  Atom+Function  
  ----- ------------  ---------------      ----- ------------  ---------------
    38      0.214983   5 C  s                67      0.209331   8 O  py        
    56     -0.204160   7 C  s                 2     -0.168257   1 C  s         
    42      0.157676   5 C  s                60     -0.155726   7 C  s         
   159      0.138114  18 N  s                29      0.118102   4 C  s         
   148     -0.117782  17 C  py              168     -0.117977  19 N  s         
 
 Vector   32  Occ=2.000000D+00  E=-8.837082D-01
              MO Center= -1.6D-01,  1.1D+00,  1.7D-04, r^2= 1.0D+01
   Bfn.  Coefficient  Atom+Function         Bfn.  Coefficient  Atom+Function  
  ----- ------------  ---------------      ----- ------------  ---------------
    20     -0.210703   3 C  s                11      0.192118   2 C  s         
   119     -0.163981  14 C  s               137      0.145986  16 C  s         
    15      0.129601   2 C  s                 2      0.128194   1 C  s         
   123     -0.120490  14 C  s                24     -0.113660   3 C  s         
    29     -0.112376   4 C  s               168      0.111898  19 N  s         
 
 Vector   33  Occ=2.000000D+00  E=-8.110207D-01
              MO Center= -2.3D-01,  6.7D-01, -8.9D-04, r^2= 9.6D+00
   Bfn.  Coefficient  Atom+Function         Bfn.  Coefficient  Atom+Function  
  ----- ------------  ---------------      ----- ------------  ---------------
    67      0.253225   8 O  py              119     -0.138465  14 C  s         
    56      0.137734   7 C  s                71      0.126746   8 O  py        
    39     -0.123381   5 C  px               60      0.123669   7 C  s         
    20      0.114838   3 C  s                40     -0.111366   5 C  py        
   146     -0.109675  17 C  s               150     -0.107205  17 C  s         
 
 Vector   34  Occ=2.000000D+00  E=-7.921685D-01
              MO Center= -4.6D-01,  1.1D+00, -3.7D-04, r^2= 1.0D+01
   Bfn.  Coefficient  Atom+Function         Bfn.  Coefficient  Atom+Function  
  ----- ------------  ---------------      ----- ------------  ---------------
    40     -0.154270   5 C  py              110      0.153339  13 C  s         
   157     -0.147054  18 N  py               31     -0.144073   4 C  py        
     2      0.143220   1 C  s                74      0.132712   9 C  s         
   139      0.132419  16 C  py              114      0.129464  13 C  s         
   128     -0.126437  15 C  s               150     -0.126869  17 C  s         
 
 Vector   35  Occ=2.000000D+00  E=-7.383809D-01
              MO Center= -8.0D-02, -5.5D-02,  2.6D-03, r^2= 9.1D+00
   Bfn.  Coefficient  Atom+Function         Bfn.  Coefficient  Atom+Function  
  ----- ------------  ---------------      ----- ------------  ---------------
   128      0.196420  15 C  s               147     -0.194384  17 C  px        
   132      0.167277  15 C  s               138      0.157812  16 C  px        
   120      0.156901  14 C  px              159      0.131939  18 N  s         
    57     -0.121689   7 C  px               33      0.115304   4 C  s         
   110     -0.113732  13 C  s               111     -0.112197  13 C  px        
 
 Vector   36  Occ=2.000000D+00  E=-7.303995D-01
              MO Center= -2.8D-01,  6.6D-01, -3.5D-03, r^2= 1.1D+01
   Bfn.  Coefficient  Atom+Function         Bfn.  Coefficient  Atom+Function  
  ----- ------------  ---------------      ----- ------------  ---------------
    30      0.168329   4 C  px               38     -0.151566   5 C  s         
   157     -0.139516  18 N  py              110      0.134090  13 C  s         
   138      0.129528  16 C  px              148      0.127445  17 C  py        
     3     -0.126669   1 C  px               69      0.125598   8 O  s         
    96     -0.124185  11 O  s               114      0.122177  13 C  s         
 
 Vector   37  Occ=2.000000D+00  E=-7.175623D-01
              MO Center=  3.1D-01, -6.7D-01, -5.5D-03, r^2= 1.1D+01
   Bfn.  Coefficient  Atom+Function         Bfn.  Coefficient  Atom+Function  
  ----- ------------  ---------------      ----- ------------  ---------------
   173      0.190608  20 C  s                39     -0.160827   5 C  px        
   121     -0.161092  14 C  py              177      0.157632  20 C  s         
    74      0.149257   9 C  s               102     -0.138266  12 N  px        
   139      0.130432  16 C  py              159      0.130765  18 N  s         
    51     -0.125707   6 O  s                96     -0.125215  11 O  s         
 
 Vector   38  Occ=2.000000D+00  E=-6.944078D-01
              MO Center= -2.9D-01,  1.0D+00, -2.9D-03, r^2= 7.1D+00
   Bfn.  Coefficient  Atom+Function         Bfn.  Coefficient  Atom+Function  
  ----- ------------  ---------------      ----- ------------  ---------------
    67      0.224799   8 O  py               30      0.195876   4 C  px        
    76      0.195827   9 C  py              138     -0.176109  16 C  px        
   148     -0.155732  17 C  py               40     -0.150870   5 C  py        
    39     -0.144892   5 C  px              147      0.140997  17 C  px        
    80      0.104862   9 C  py               22     -0.098595   3 C  py        
 
 Vector   39  Occ=2.000000D+00  E=-6.698048D-01
              MO Center=  2.5D-01,  3.9D-01,  6.0D-04, r^2= 1.7D+01
   Bfn.  Coefficient  Atom+Function         Bfn.  Coefficient  Atom+Function  
  ----- ------------  ---------------      ----- ------------  ---------------
    85      0.239802  10 F  py              102     -0.191778  12 N  px        
   157     -0.174371  18 N  py              111     -0.161499  13 C  px        
   147      0.153894  17 C  px               89      0.152433  10 F  py        
    24      0.145978   3 C  s               173      0.143548  20 C  s         
    58     -0.127297   7 C  py                6      0.121424   1 C  s         
 
 Vector   40  Occ=2.000000D+00  E=-6.494831D-01
              MO Center= -9.1D-02,  1.4D+00,  1.6D-03, r^2= 1.3D+01
   Bfn.  Coefficient  Atom+Function         Bfn.  Coefficient  Atom+Function  
  ----- ------------  ---------------      ----- ------------  ---------------
    85      0.278483  10 F  py               89      0.176834  10 F  py        
    57     -0.173270   7 C  px              157      0.173203  18 N  py        
    15     -0.163745   2 C  s               148     -0.157828  17 C  py        
   132     -0.140448  15 C  s                66     -0.138403   8 O  px        
   141      0.133550  16 C  s               111      0.130585  13 C  px        
 
 Vector   41  Occ=2.000000D+00  E=-6.291415D-01
              MO Center=  6.4D-01,  6.8D-03,  4.2D-02, r^2= 1.8D+01
   Bfn.  Coefficient  Atom+Function         Bfn.  Coefficient  Atom+Function  
  ----- ------------  ---------------      ----- ------------  ---------------
    84      0.217734  10 F  px              102      0.212331  12 N  px        
    58     -0.173711   7 C  py               22      0.155040   3 C  py        
   159      0.149345  18 N  s                88      0.139438  10 F  px        
    40     -0.137326   5 C  py              174     -0.136562  20 C  px        
    33     -0.133840   4 C  s               187      0.132494  24 H  s         
 
 Vector   42  Occ=2.000000D+00  E=-6.120478D-01
              MO Center=  4.3D-01, -1.1D+00,  3.2D-02, r^2= 1.4D+01
   Bfn.  Coefficient  Atom+Function         Bfn.  Coefficient  Atom+Function  
  ----- ------------  ---------------      ----- ------------  ---------------
    68      0.207567   8 O  pz              104      0.191946  12 N  pz        
    78     -0.166254   9 C  s                84     -0.145965  10 F  px        
   187      0.145550  24 H  s               141      0.136439  16 C  s         
   103      0.134086  12 N  py               72      0.128086   8 O  pz        
   149      0.124215  17 C  pz               22     -0.117487   3 C  py        
 
 Vector   43  Occ=2.000000D+00  E=-6.095787D-01
              MO Center= -6.0D-01,  1.6D-01,  9.3D-03, r^2= 8.0D+00
   Bfn.  Coefficient  Atom+Function         Bfn.  Coefficient  Atom+Function  
  ----- ------------  ---------------      ----- ------------  ---------------
    68      0.353936   8 O  pz               72      0.220098   8 O  pz        
   149      0.202768  17 C  pz               41      0.170806   5 C  pz        
    78      0.135563   9 C  s               140      0.099279  16 C  pz        
   153      0.096743  17 C  pz              158      0.092081  18 N  pz        
   104     -0.090664  12 N  pz              121      0.090346  14 C  py        
 
 Vector   44  Occ=2.000000D+00  E=-6.017654D-01
              MO Center= -1.9D-01,  9.1D-01,  5.2D-03, r^2= 1.4D+01
   Bfn.  Coefficient  Atom+Function         Bfn.  Coefficient  Atom+Function  
  ----- ------------  ---------------      ----- ------------  ---------------
     3      0.198573   1 C  px               78      0.180145   9 C  s         
    33     -0.153679   4 C  s               130     -0.150865  15 C  py        
    39     -0.147802   5 C  px               13     -0.142384   2 C  py        
    85      0.142296  10 F  py               57     -0.137999   7 C  px        
   157     -0.138346  18 N  py              112      0.133673  13 C  py        
 
 Vector   45  Occ=2.000000D+00  E=-5.834685D-01
              MO Center=  1.0D+00, -2.5D+00, -6.7D-02, r^2= 1.2D+01
   Bfn.  Coefficient  Atom+Function         Bfn.  Coefficient  Atom+Function  
  ----- ------------  ---------------      ----- ------------  ---------------
   104      0.261325  12 N  pz              189     -0.186749  25 H  s         
   102     -0.150390  12 N  px              108      0.149472  12 N  pz        
   174      0.149755  20 C  px              120     -0.142138  14 C  px        
   111      0.131690  13 C  px              103      0.130416  12 N  py        
   176      0.126015  20 C  pz               24     -0.119552   3 C  s         
 
 Vector   46  Occ=2.000000D+00  E=-5.734212D-01
              MO Center=  1.6D-01,  2.4D+00, -3.2D-02, r^2= 2.0D+01
   Bfn.  Coefficient  Atom+Function         Bfn.  Coefficient  Atom+Function  
  ----- ------------  ---------------      ----- ------------  ---------------
    86      0.460793  10 F  pz               90      0.309072  10 F  pz        
   167     -0.206033  19 N  pz               59      0.192264   7 C  pz        
    63      0.128343   7 C  pz              195      0.119737  28 H  s         
   171     -0.115657  19 N  pz              113     -0.095957  13 C  pz        
   193     -0.087581  27 H  s               166     -0.079432  19 N  py        
 
 Vector   47  Occ=2.000000D+00  E=-5.702765D-01
              MO Center= -6.5D-01, -3.7D-01, -7.0D-02, r^2= 2.0D+01
   Bfn.  Coefficient  Atom+Function         Bfn.  Coefficient  Atom+Function  
  ----- ------------  ---------------      ----- ------------  ---------------
    86      0.312116  10 F  pz              167      0.275331  19 N  pz        
    90      0.210193  10 F  pz              195     -0.184038  28 H  s         
   166      0.167507  19 N  py              171      0.157872  19 N  pz        
   112     -0.135336  13 C  py               59      0.120875   7 C  pz        
    68     -0.118176   8 O  pz              113      0.107736  13 C  pz        
 
 Vector   48  Occ=2.000000D+00  E=-5.671794D-01
              MO Center= -5.4D-01, -9.7D-01,  7.4D-02, r^2= 1.4D+01
   Bfn.  Coefficient  Atom+Function         Bfn.  Coefficient  Atom+Function  
  ----- ------------  ---------------      ----- ------------  ---------------
   112     -0.209741  13 C  py               76      0.199278   9 C  py        
   166      0.184894  19 N  py              167     -0.182873  19 N  pz        
   165      0.174199  19 N  px              193     -0.168699  27 H  s         
    31     -0.151863   4 C  py               84      0.152214  10 F  px        
    24     -0.139361   3 C  s               132      0.106090  15 C  s         
 
 Vector   49  Occ=2.000000D+00  E=-5.482936D-01
              MO Center=  2.9D-01,  6.5D-01, -3.8D-03, r^2= 1.6D+01
   Bfn.  Coefficient  Atom+Function         Bfn.  Coefficient  Atom+Function  
  ----- ------------  ---------------      ----- ------------  ---------------
    24      0.260098   3 C  s                85      0.225021  10 F  py        
   174      0.171853  20 C  px              139      0.162376  16 C  py        
    89      0.157033  10 F  py               84     -0.146463  10 F  px        
    21      0.145612   3 C  px               49     -0.143669   6 O  py        
     4      0.138725   1 C  py               69     -0.138376   8 O  s         
 
 Vector   50  Occ=2.000000D+00  E=-5.332838D-01
              MO Center= -7.3D-01,  3.0D+00, -1.4D-03, r^2= 5.6D+00
   Bfn.  Coefficient  Atom+Function         Bfn.  Coefficient  Atom+Function  
  ----- ------------  ---------------      ----- ------------  ---------------
    12      0.346921   2 C  px               21      0.276552   3 C  px        
   183     -0.231609  22 H  s               185      0.167164  23 H  s         
    40      0.158331   5 C  py              184     -0.155309  22 H  s         
    25      0.145382   3 C  px               16      0.143978   2 C  px        
     6      0.136931   1 C  s                33     -0.110114   4 C  s         
 
 Vector   51  Occ=2.000000D+00  E=-5.216965D-01
              MO Center= -9.7D-02,  4.1D-01, -6.1D-03, r^2= 1.7D+01
   Bfn.  Coefficient  Atom+Function         Bfn.  Coefficient  Atom+Function  
  ----- ------------  ---------------      ----- ------------  ---------------
    66      0.229181   8 O  px               49      0.198720   6 O  py        
    51     -0.185958   6 O  s                 4     -0.184663   1 C  py        
    84     -0.180546  10 F  px               21      0.160176   3 C  px        
    15      0.139764   2 C  s                70      0.139792   8 O  px        
   130      0.137762  15 C  py               31     -0.132842   4 C  py        
 
 Vector   52  Occ=2.000000D+00  E=-5.152944D-01
              MO Center=  4.1D-01,  7.7D-01,  2.1D-03, r^2= 1.2D+01
   Bfn.  Coefficient  Atom+Function         Bfn.  Coefficient  Atom+Function  
  ----- ------------  ---------------      ----- ------------  ---------------
    93      0.266402  11 O  px               66     -0.213145   8 O  px        
    75     -0.202217   9 C  px               31     -0.174292   4 C  py        
    96      0.166537  11 O  s                 4      0.163377   1 C  py        
    49      0.161597   6 O  py               97      0.148017  11 O  px        
    34     -0.144536   4 C  px               22      0.136478   3 C  py        
 
 Vector   53  Occ=2.000000D+00  E=-5.093525D-01
              MO Center=  6.8D-01,  1.3D+00,  4.4D-03, r^2= 9.4D+00
   Bfn.  Coefficient  Atom+Function         Bfn.  Coefficient  Atom+Function  
  ----- ------------  ---------------      ----- ------------  ---------------
    93      0.347466  11 O  px               75     -0.257218   9 C  px        
     4     -0.222720   1 C  py               96      0.198290  11 O  s         
    97      0.195380  11 O  px               42     -0.180341   5 C  s         
    13      0.158702   2 C  py               66     -0.149101   8 O  px        
    92      0.133439  11 O  s               129      0.128106  15 C  px        
 
 Vector   54  Occ=2.000000D+00  E=-5.037816D-01
              MO Center=  3.9D-01,  4.3D-01, -1.3D-02, r^2= 9.8D+00
   Bfn.  Coefficient  Atom+Function         Bfn.  Coefficient  Atom+Function  
  ----- ------------  ---------------      ----- ------------  ---------------
    77     -0.225540   9 C  pz               68      0.207860   8 O  pz        
    95     -0.194591  11 O  pz               84     -0.193518  10 F  px        
   129     -0.167271  15 C  px               72      0.151453   8 O  pz        
   140     -0.152168  16 C  pz               88     -0.130520  10 F  px        
    81     -0.125518   9 C  pz               99     -0.118217  11 O  pz        
 
 Vector   55  Occ=2.000000D+00  E=-5.019729D-01
              MO Center=  4.6D-01,  4.6D-01,  6.7D-03, r^2= 1.0D+01
   Bfn.  Coefficient  Atom+Function         Bfn.  Coefficient  Atom+Function  
  ----- ------------  ---------------      ----- ------------  ---------------
   129     -0.224865  15 C  px               84     -0.211872  10 F  px        
    77      0.209431   9 C  pz               95      0.182365  11 O  pz        
    68     -0.168780   8 O  pz              191     -0.147169  26 H  s         
    88     -0.142973  10 F  px              120      0.126840  14 C  px        
   111     -0.124985  13 C  px               72     -0.122333   8 O  pz        
 
 Vector   56  Occ=2.000000D+00  E=-4.912303D-01
              MO Center= -3.3D-01, -3.2D-01,  1.3D-02, r^2= 1.1D+01
   Bfn.  Coefficient  Atom+Function         Bfn.  Coefficient  Atom+Function  
  ----- ------------  ---------------      ----- ------------  ---------------
   158     -0.187663  18 N  pz               32      0.182809   4 C  pz        
   149     -0.170054  17 C  pz               41      0.162787   5 C  pz        
   122     -0.148193  14 C  pz               86     -0.146503  10 F  pz        
   167      0.138615  19 N  pz              113     -0.133693  13 C  pz        
    77      0.124026   9 C  pz               95      0.116646  11 O  pz        
 
 Vector   57  Occ=2.000000D+00  E=-4.897025D-01
              MO Center=  2.7D-01, -2.4D+00, -1.8D-02, r^2= 1.0D+01
   Bfn.  Coefficient  Atom+Function         Bfn.  Coefficient  Atom+Function  
  ----- ------------  ---------------      ----- ------------  ---------------
   130     -0.244188  15 C  py               48      0.237851   6 O  px        
   175     -0.235369  20 C  py               49      0.207668   6 O  py        
   121      0.174006  14 C  py              139      0.172284  16 C  py        
    51     -0.158431   6 O  s                52      0.131599   6 O  px        
    76     -0.129257   9 C  py               53      0.121934   6 O  py        
 
 Vector   58  Occ=2.000000D+00  E=-4.676666D-01
              MO Center= -1.0D-02,  1.7D+00, -2.2D-03, r^2= 1.0D+01
   Bfn.  Coefficient  Atom+Function         Bfn.  Coefficient  Atom+Function  
  ----- ------------  ---------------      ----- ------------  ---------------
    66      0.282175   8 O  px               84      0.240794  10 F  px        
    22     -0.202192   3 C  py               70      0.186488   8 O  px        
     3      0.177110   1 C  px               57     -0.177264   7 C  px        
    88      0.167897  10 F  px              129     -0.158676  15 C  px        
    93      0.154269  11 O  px              138      0.149308  16 C  px        
 
 Vector   59  Occ=2.000000D+00  E=-4.575912D-01
              MO Center=  3.2D-01, -1.9D+00,  3.2D-02, r^2= 1.4D+01
   Bfn.  Coefficient  Atom+Function         Bfn.  Coefficient  Atom+Function  
  ----- ------------  ---------------      ----- ------------  ---------------
    50      0.284931   6 O  pz              176      0.265771  20 C  pz        
    54      0.181950   6 O  pz              180      0.168112  20 C  pz        
   103     -0.140543  12 N  py               41      0.126789   5 C  pz        
   122      0.127127  14 C  pz              149     -0.124872  17 C  pz        
    14      0.123926   2 C  pz               86     -0.112461  10 F  pz        
 
 Vector   60  Occ=2.000000D+00  E=-4.259490D-01
              MO Center= -2.5D-01,  2.6D+00,  4.1D-05, r^2= 6.6D+00
   Bfn.  Coefficient  Atom+Function         Bfn.  Coefficient  Atom+Function  
  ----- ------------  ---------------      ----- ------------  ---------------
    39      0.227842   5 C  px               66     -0.219537   8 O  px        
    21      0.214206   3 C  px               57     -0.215168   7 C  px        
     3      0.205306   1 C  px               30     -0.188511   4 C  px        
    70     -0.159995   8 O  px               12     -0.155745   2 C  px        
    84      0.147919  10 F  px              185      0.142491  23 H  s         
 
 Vector   61  Occ=2.000000D+00  E=-4.251126D-01
              MO Center= -2.4D-01,  3.4D-01,  7.8D-03, r^2= 1.5D+01
   Bfn.  Coefficient  Atom+Function         Bfn.  Coefficient  Atom+Function  
  ----- ------------  ---------------      ----- ------------  ---------------
   158      0.195271  18 N  pz                5      0.193303   1 C  pz        
    50     -0.193533   6 O  pz               68     -0.182408   8 O  pz        
    86     -0.178857  10 F  pz              113      0.173705  13 C  pz        
    95     -0.171176  11 O  pz               14      0.149803   2 C  pz        
    59      0.150179   7 C  pz               72     -0.148891   8 O  pz        
 
 Vector   62  Occ=2.000000D+00  E=-3.671880D-01
              MO Center= -7.5D-02, -3.3D+00,  2.9D-03, r^2= 7.4D+00
   Bfn.  Coefficient  Atom+Function         Bfn.  Coefficient  Atom+Function  
  ----- ------------  ---------------      ----- ------------  ---------------
   123      0.353222  14 C  s                48      0.295980   6 O  px        
    49     -0.287072   6 O  py              125     -0.226612  14 C  py        
   165     -0.225895  19 N  px              105     -0.202002  12 N  s         
    52      0.188238   6 O  px               53     -0.184234   6 O  py        
   169     -0.172683  19 N  px              178      0.173248  20 C  px        
 
 Vector   63  Occ=2.000000D+00  E=-3.631825D-01
              MO Center= -1.0D-01, -1.3D+00,  1.2D-02, r^2= 6.6D+00
   Bfn.  Coefficient  Atom+Function         Bfn.  Coefficient  Atom+Function  
  ----- ------------  ---------------      ----- ------------  ---------------
   131      0.288478  15 C  pz              158     -0.279928  18 N  pz        
   162     -0.198854  18 N  pz              122      0.185763  14 C  pz        
   135      0.182321  15 C  pz              126      0.155291  14 C  pz        
   140      0.149148  16 C  pz              123     -0.145707  14 C  s         
   141     -0.143470  16 C  s               156      0.142577  18 N  px        
 
 Vector   64  Occ=2.000000D+00  E=-3.548169D-01
              MO Center= -5.0D-01, -8.8D-01, -2.2D-02, r^2= 8.0D+00
   Bfn.  Coefficient  Atom+Function         Bfn.  Coefficient  Atom+Function  
  ----- ------------  ---------------      ----- ------------  ---------------
   141      0.429685  16 C  s               156     -0.351426  18 N  px        
    94      0.288743  11 O  py              160     -0.216179  18 N  px        
    98      0.187025  11 O  py              159      0.186605  18 N  s         
    33     -0.182925   4 C  s                80      0.174965   9 C  py        
   151     -0.161430  17 C  px              143      0.151193  16 C  py        
 
 Vector   65  Occ=2.000000D+00  E=-3.412903D-01
              MO Center= -1.3D-01, -3.0D-01,  8.9D-03, r^2= 1.3D+01
   Bfn.  Coefficient  Atom+Function         Bfn.  Coefficient  Atom+Function  
  ----- ------------  ---------------      ----- ------------  ---------------
     5      0.210538   1 C  pz              113     -0.196003  13 C  pz        
   140      0.184734  16 C  pz               32     -0.180239   4 C  pz        
   149      0.173674  17 C  pz               41     -0.166050   5 C  pz        
   141      0.165614  16 C  s                48     -0.163083   6 O  px        
    50      0.161926   6 O  pz                9      0.159059   1 C  pz        
 
 Vector   66  Occ=2.000000D+00  E=-3.380176D-01
              MO Center=  4.3D-01,  1.9D+00, -6.9D-03, r^2= 7.0D+00
   Bfn.  Coefficient  Atom+Function         Bfn.  Coefficient  Atom+Function  
  ----- ------------  ---------------      ----- ------------  ---------------
    23     -0.254985   3 C  pz               95      0.254073  11 O  pz        
    14      0.241245   2 C  pz               94     -0.233452  11 O  py        
    32     -0.216726   4 C  pz                5      0.199064   1 C  pz        
    33      0.188700   4 C  s                99      0.188145  11 O  pz        
    36     -0.184180   4 C  pz               18      0.178143   2 C  pz        
 
 Vector   67  Occ=2.000000D+00  E=-3.368886D-01
              MO Center=  5.1D-01,  8.3D-02, -2.4D-03, r^2= 7.7D+00
   Bfn.  Coefficient  Atom+Function         Bfn.  Coefficient  Atom+Function  
  ----- ------------  ---------------      ----- ------------  ---------------
    94      0.416688  11 O  py               33     -0.335820   4 C  s         
    80      0.293701   9 C  py              142      0.294814  16 C  px        
   156      0.285351  18 N  px               98      0.277546  11 O  py        
    35      0.186453   4 C  py              160      0.173754  18 N  px        
    34     -0.170888   4 C  px              141      0.171107  16 C  s         
 
 Vector   68  Occ=2.000000D+00  E=-3.244538D-01
              MO Center=  1.4D+00, -3.9D+00,  4.2D-05, r^2= 4.4D+00
   Bfn.  Coefficient  Atom+Function         Bfn.  Coefficient  Atom+Function  
  ----- ------------  ---------------      ----- ------------  ---------------
   103      0.414480  12 N  py              107      0.347197  12 N  py        
   104     -0.298950  12 N  pz              108     -0.285686  12 N  pz        
    50      0.207752   6 O  pz               48      0.168269   6 O  px        
    54      0.164140   6 O  pz              156     -0.133007  18 N  px        
    52      0.117766   6 O  px              178      0.108161  20 C  px        
 
 Vector   69  Occ=2.000000D+00  E=-3.030284D-01
              MO Center= -1.3D-01,  1.4D+00, -2.7D-04, r^2= 8.9D+00
   Bfn.  Coefficient  Atom+Function         Bfn.  Coefficient  Atom+Function  
  ----- ------------  ---------------      ----- ------------  ---------------
    68      0.283728   8 O  pz               72      0.252257   8 O  pz        
    59      0.247241   7 C  pz               95      0.208680  11 O  pz        
    41     -0.204674   5 C  pz               14     -0.179123   2 C  pz        
   122      0.171096  14 C  pz               99      0.163915  11 O  pz        
    23      0.154866   3 C  pz              144     -0.154897  16 C  pz        
 
 Vector   70  Occ=2.000000D+00  E=-2.721155D-01
              MO Center= -1.1D+00, -3.9D+00, -2.5D-03, r^2= 3.3D+00
   Bfn.  Coefficient  Atom+Function         Bfn.  Coefficient  Atom+Function  
  ----- ------------  ---------------      ----- ------------  ---------------
   165      0.428832  19 N  px              169      0.363552  19 N  px        
    48      0.301650   6 O  px              166     -0.249500  19 N  py        
   124      0.226585  14 C  px               52      0.207786   6 O  px        
   170     -0.202441  19 N  py              159      0.186532  18 N  s         
   125     -0.182636  14 C  py              105     -0.177190  12 N  s         
 
 Vector   71  Occ=0.000000D+00  E=-6.205692D-02
              MO Center=  3.1D-01,  4.5D-01,  3.5D-03, r^2= 8.1D+00
   Bfn.  Coefficient  Atom+Function         Bfn.  Coefficient  Atom+Function  
  ----- ------------  ---------------      ----- ------------  ---------------
   135      0.339478  15 C  pz               77     -0.278921   9 C  pz        
    99      0.277508  11 O  pz               95      0.265401  11 O  pz        
    27      0.246642   3 C  pz              131      0.246561  15 C  pz        
     9     -0.231444   1 C  pz              113     -0.225965  13 C  pz        
    81     -0.222700   9 C  pz              117     -0.210364  13 C  pz        
 
 Vector   72  Occ=0.000000D+00  E=-3.694929D-02
              MO Center= -8.6D-02, -2.0D+00, -6.1D-03, r^2= 8.0D+00
   Bfn.  Coefficient  Atom+Function         Bfn.  Coefficient  Atom+Function  
  ----- ------------  ---------------      ----- ------------  ---------------
   153      0.345095  17 C  pz              149      0.327805  17 C  pz        
   126      0.310885  14 C  pz               54     -0.276449   6 O  pz        
    50     -0.268950   6 O  pz              176      0.264626  20 C  pz        
   117     -0.263161  13 C  pz              135     -0.230790  15 C  pz        
   180      0.226918  20 C  pz              122      0.211335  14 C  pz        
 
 Vector   73  Occ=0.000000D+00  E= 3.474699D-03
              MO Center= -4.0D-01,  6.7D-01,  6.1D-03, r^2= 9.4D+00
   Bfn.  Coefficient  Atom+Function         Bfn.  Coefficient  Atom+Function  
  ----- ------------  ---------------      ----- ------------  ---------------
   135      0.344986  15 C  pz                9      0.340309   1 C  pz        
   144     -0.331907  16 C  pz               36      0.307272   4 C  pz        
   162      0.286164  18 N  pz               27     -0.283261   3 C  pz        
   117     -0.277454  13 C  pz               18     -0.274615   2 C  pz        
   113     -0.244901  13 C  pz              158      0.238860  18 N  pz        
 
 Vector   74  Occ=0.000000D+00  E= 2.042581D-02
              MO Center= -2.4D-01,  2.2D+00, -6.8D-04, r^2= 9.0D+00
   Bfn.  Coefficient  Atom+Function         Bfn.  Coefficient  Atom+Function  
  ----- ------------  ---------------      ----- ------------  ---------------
    45      0.497632   5 C  pz               63      0.425259   7 C  pz        
    41      0.374491   5 C  pz               59      0.351548   7 C  pz        
    18     -0.345461   2 C  pz               27     -0.310353   3 C  pz        
[...]
 
 Vector  175  Occ=0.000000D+00  E= 1.343321D+00
              MO Center= -7.4D-01, -5.7D-02,  4.7D-03, r^2= 1.5D+01
   Bfn.  Coefficient  Atom+Function         Bfn.  Coefficient  Atom+Function  
  ----- ------------  ---------------      ----- ------------  ---------------
    43      3.868711   5 C  px              143     -3.786918  16 C  py        
    34      3.613588   4 C  px              132     -3.366568  15 C  s         
    24     -2.755258   3 C  s                80     -2.755842   9 C  py        
    15      2.374853   2 C  s               141     -1.974704  16 C  s         
    60      1.928208   7 C  s                17     -1.702147   2 C  py        
 
 Vector  176  Occ=0.000000D+00  E= 1.363754D+00
              MO Center=  9.4D-01,  5.3D+00,  4.8D-02, r^2= 3.8D+00
   Bfn.  Coefficient  Atom+Function         Bfn.  Coefficient  Atom+Function  
  ----- ------------  ---------------      ----- ------------  ---------------
    90      1.206944  10 F  pz               24      0.939457   3 C  s         
    86     -0.909495  10 F  pz               63     -0.789694   7 C  pz        
    34     -0.714349   4 C  px              132      0.634791  15 C  s         
    35     -0.620534   4 C  py               43     -0.607537   5 C  px        
   143      0.548677  16 C  py               60     -0.525321   7 C  s         
 
 Vector  177  Occ=0.000000D+00  E= 1.365026D+00
              MO Center=  2.5D-01, -8.7D-02, -5.4D-02, r^2= 2.0D+01
   Bfn.  Coefficient  Atom+Function         Bfn.  Coefficient  Atom+Function  
  ----- ------------  ---------------      ----- ------------  ---------------
    24      3.909520   3 C  s                35     -2.750755   4 C  py        
   132      2.702325  15 C  s                34     -2.633442   4 C  px        
    43     -2.307849   5 C  px               60     -2.222230   7 C  s         
   123      2.227010  14 C  s               143      2.177271  16 C  py        
   152     -2.136019  17 C  py               79      2.023559   9 C  px        
 
 Vector  178  Occ=0.000000D+00  E= 1.385934D+00
              MO Center=  5.2D-01, -5.8D-01,  3.1D-02, r^2= 1.2D+01
   Bfn.  Coefficient  Atom+Function         Bfn.  Coefficient  Atom+Function  
  ----- ------------  ---------------      ----- ------------  ---------------
   125      5.731712  14 C  py              116     -4.405108  13 C  py        
   132     -4.361605  15 C  s               177      3.808014  20 C  s         
   141     -3.641993  16 C  s               114      3.422366  13 C  s         
   123     -3.278296  14 C  s               124      3.100400  14 C  px        
   150      2.990573  17 C  s                33      2.626616   4 C  s         
 
 Vector  179  Occ=0.000000D+00  E= 1.434130D+00
              MO Center=  4.4D-01, -2.9D-01,  2.5D-02, r^2= 1.5D+01
   Bfn.  Coefficient  Atom+Function         Bfn.  Coefficient  Atom+Function  
  ----- ------------  ---------------      ----- ------------  ---------------
   123      5.259877  14 C  s                34      5.096295   4 C  px        
   177     -5.052304  20 C  s                33      4.429883   4 C  s         
   125     -4.087556  14 C  py               80     -3.919738   9 C  py        
    42      3.897629   5 C  s               141     -3.581858  16 C  s         
   179     -3.190989  20 C  py               26      3.072220   3 C  py        
 
 Vector  180  Occ=0.000000D+00  E= 1.459577D+00
              MO Center=  3.7D-01,  2.7D+00,  1.2D-02, r^2= 1.4D+01
   Bfn.  Coefficient  Atom+Function         Bfn.  Coefficient  Atom+Function  
  ----- ------------  ---------------      ----- ------------  ---------------
   141      4.297650  16 C  s               142      4.189904  16 C  px        
    33     -3.380449   4 C  s               150      3.275373  17 C  s         
    80      3.222301   9 C  py              177      2.944507  20 C  s         
    78     -2.888916   9 C  s                42      2.553267   5 C  s         
   134     -2.440523  15 C  py              132     -2.243160  15 C  s         
 
 Vector  181  Occ=0.000000D+00  E= 1.472272D+00
              MO Center=  5.5D-01,  1.1D+00,  3.7D-03, r^2= 9.3D+00
   Bfn.  Coefficient  Atom+Function         Bfn.  Coefficient  Atom+Function  
  ----- ------------  ---------------      ----- ------------  ---------------
   142      6.730867  16 C  px               80      5.532543   9 C  py        
    34     -5.420667   4 C  px              150      3.866173  17 C  s         
   141      3.799560  16 C  s                42     -3.444629   5 C  s         
    78     -2.571346   9 C  s               134     -2.504282  15 C  py        
   123     -2.474328  14 C  s               133     -2.208966  15 C  px        
 
 Vector  182  Occ=0.000000D+00  E= 1.482010D+00
              MO Center= -8.4D-02, -6.9D-02,  2.1D-02, r^2= 1.1D+01
   Bfn.  Coefficient  Atom+Function         Bfn.  Coefficient  Atom+Function  
  ----- ------------  ---------------      ----- ------------  ---------------
    33      6.449573   4 C  s               124     -6.416176  14 C  px        
    15     -5.810038   2 C  s                44      5.694646   5 C  py        
    35     -5.104329   4 C  py               80     -4.715246   9 C  py        
   152      4.216573  17 C  py              115     -4.126110  13 C  px        
   143     -3.259231  16 C  py              114     -3.163410  13 C  s         
 
 Vector  183  Occ=0.000000D+00  E= 1.527564D+00
              MO Center=  8.4D-01, -2.0D+00, -2.2D-02, r^2= 1.2D+01
   Bfn.  Coefficient  Atom+Function         Bfn.  Coefficient  Atom+Function  
  ----- ------------  ---------------      ----- ------------  ---------------
   105      4.940053  12 N  s               124      4.305385  14 C  px        
   178     -4.186313  20 C  px              132     -3.882151  15 C  s         
    44      3.729548   5 C  py              114      3.418728  13 C  s         
   152      3.425201  17 C  py              177     -2.744679  20 C  s         
   134      2.416121  15 C  py              143     -2.320063  16 C  py        
 
 Vector  184  Occ=0.000000D+00  E= 1.543492D+00
              MO Center=  8.7D-02,  1.7D+00,  6.7D-04, r^2= 1.2D+01
   Bfn.  Coefficient  Atom+Function         Bfn.  Coefficient  Atom+Function  
  ----- ------------  ---------------      ----- ------------  ---------------
    35      6.469155   4 C  py              142     -4.327912  16 C  px        
   143      3.931631  16 C  py               78      3.649841   9 C  s         
    24     -3.484739   3 C  s               134      3.385868  15 C  py        
    25      3.354011   3 C  px              150     -3.084556  17 C  s         
   132      2.911485  15 C  s               151     -2.528507  17 C  px        
 
 Vector  185  Occ=0.000000D+00  E= 1.594059D+00
              MO Center=  6.0D-01, -3.6D-01, -2.8D-02, r^2= 9.9D+00
   Bfn.  Coefficient  Atom+Function         Bfn.  Coefficient  Atom+Function  
  ----- ------------  ---------------      ----- ------------  ---------------
    78     12.292184   9 C  s               143     -7.150140  16 C  py        
   123      4.483815  14 C  s                34     -4.453447   4 C  px        
    33     -4.265182   4 C  s               177     -4.076952  20 C  s         
   124      3.835929  14 C  px              125     -3.664350  14 C  py        
    42     -3.394478   5 C  s                79     -3.392888   9 C  px        
 
 Vector  186  Occ=0.000000D+00  E= 1.612613D+00
              MO Center= -6.1D-01, -1.5D+00, -2.7D-02, r^2= 1.0D+01
   Bfn.  Coefficient  Atom+Function         Bfn.  Coefficient  Atom+Function  
  ----- ------------  ---------------      ----- ------------  ---------------
    78     -7.697260   9 C  s                33      7.432068   4 C  s         
   123     -5.368949  14 C  s                35     -5.165973   4 C  py        
   132      5.075369  15 C  s               114      4.980438  13 C  s         
   124      4.897881  14 C  px              142     -4.677271  16 C  px        
   115      4.481454  13 C  px              151     -4.471672  17 C  px        
 
 Vector  187  Occ=0.000000D+00  E= 1.635692D+00
              MO Center= -4.8D-03,  1.1D+00,  5.8D-04, r^2= 1.4D+01
   Bfn.  Coefficient  Atom+Function         Bfn.  Coefficient  Atom+Function  
  ----- ------------  ---------------      ----- ------------  ---------------
   141     -8.199718  16 C  s               132      7.789926  15 C  s         
   123     -5.932769  14 C  s               125     -5.811714  14 C  py        
   133     -5.484181  15 C  px                6     -4.144755   1 C  s         
    34      3.978610   4 C  px              150      3.621996  17 C  s         
   151      3.262297  17 C  px               61     -2.915376   7 C  px        
 
 Vector  188  Occ=0.000000D+00  E= 1.676931D+00
              MO Center=  4.5D-01,  2.0D+00, -5.2D-03, r^2= 1.7D+01
   Bfn.  Coefficient  Atom+Function         Bfn.  Coefficient  Atom+Function  
  ----- ------------  ---------------      ----- ------------  ---------------
    24      7.407652   3 C  s               132     -5.785733  15 C  s         
   125      4.927255  14 C  py               33     -3.873205   4 C  s         
   141      3.568856  16 C  s                62      3.434740   7 C  py        
    80      3.257533   9 C  py              142      3.240473  16 C  px        
    61     -3.114870   7 C  px              123      3.042522  14 C  s         
 
 Vector  189  Occ=0.000000D+00  E= 1.724987D+00
              MO Center= -5.9D-03, -1.6D+00,  7.8D-03, r^2= 1.2D+01
   Bfn.  Coefficient  Atom+Function         Bfn.  Coefficient  Atom+Function  
  ----- ------------  ---------------      ----- ------------  ---------------
   141      9.225099  16 C  s                78     -7.015989   9 C  s         
    24      5.893642   3 C  s                35     -4.991992   4 C  py        
   168      4.050267  19 N  s               116      3.026462  13 C  py        
    43     -2.902212   5 C  px               60     -2.859666   7 C  s         
    79      2.856753   9 C  px               34     -2.829724   4 C  px        
 
 Vector  190  Occ=0.000000D+00  E= 1.841035D+00
              MO Center= -4.0D-01,  2.4D+00, -2.6D-03, r^2= 8.2D+00
   Bfn.  Coefficient  Atom+Function         Bfn.  Coefficient  Atom+Function  
  ----- ------------  ---------------      ----- ------------  ---------------
    42    -11.025166   5 C  s                15     10.741755   2 C  s         
     6     -9.724861   1 C  s                60      9.375969   7 C  s         
    33      9.162714   4 C  s                24     -8.887777   3 C  s         
   141      7.335893  16 C  s                44     -6.283045   5 C  py        
    16      6.195575   2 C  px               35      5.989604   4 C  py        
 
 Vector  191  Occ=0.000000D+00  E= 1.939648D+00
              MO Center= -8.9D-01, -1.1D+00,  6.0D-04, r^2= 7.9D+00
   Bfn.  Coefficient  Atom+Function         Bfn.  Coefficient  Atom+Function  
  ----- ------------  ---------------      ----- ------------  ---------------
   132     10.529174  15 C  s               159     -9.792109  18 N  s         
   143      6.657814  16 C  py              123     -5.782046  14 C  s         
   125     -5.767544  14 C  py               15      5.645867   2 C  s         
    44     -5.327253   5 C  py              152     -5.328709  17 C  py        
    24     -5.144261   3 C  s               116      4.683339  13 C  py        
 
 Vector  192  Occ=0.000000D+00  E= 1.999066D+00
              MO Center= -1.1D+00,  1.6D-01,  1.1D-03, r^2= 8.1D+00
   Bfn.  Coefficient  Atom+Function         Bfn.  Coefficient  Atom+Function  
  ----- ------------  ---------------      ----- ------------  ---------------
    43      8.758958   5 C  px               34      8.148384   4 C  px        
    33     -7.416847   4 C  s                42      7.232684   5 C  s         
   142     -6.826023  16 C  px              151     -5.865172  17 C  px        
    80     -5.021809   9 C  py              143     -4.579815  16 C  py        
   150     -4.523875  17 C  s                71      4.297252   8 O  py        
 
 Vector  193  Occ=0.000000D+00  E= 2.074115D+00
              MO Center= -3.1D-01, -3.5D+00, -3.6D-03, r^2= 6.9D+00
   Bfn.  Coefficient  Atom+Function         Bfn.  Coefficient  Atom+Function  
  ----- ------------  ---------------      ----- ------------  ---------------
   124     -4.619688  14 C  px               51      4.576724   6 O  s         
   178      3.677197  20 C  px              151      3.543204  17 C  px        
   115     -3.190826  13 C  px              142      3.093120  16 C  px        
   168     -3.105933  19 N  s               114     -2.618485  13 C  s         
   116     -2.549132  13 C  py               43     -2.521294   5 C  px        
 
 Vector  194  Occ=0.000000D+00  E= 2.117768D+00
              MO Center=  8.8D-01,  7.2D-01,  1.2D-03, r^2= 5.6D+00
   Bfn.  Coefficient  Atom+Function         Bfn.  Coefficient  Atom+Function  
  ----- ------------  ---------------      ----- ------------  ---------------
    79      7.129694   9 C  px               33      5.850153   4 C  s         
    96     -5.572974  11 O  s               141      5.461396  16 C  s         
    42     -4.811646   5 C  s                34     -4.589012   4 C  px        
    43     -3.869821   5 C  px               78     -3.774473   9 C  s         
   159      3.542354  18 N  s               143      2.814420  16 C  py        
 
 Vector  195  Occ=0.000000D+00  E= 2.215705D+00
              MO Center= -6.9D-01,  8.0D-01,  2.1D-03, r^2= 4.6D+00
   Bfn.  Coefficient  Atom+Function         Bfn.  Coefficient  Atom+Function  
  ----- ------------  ---------------      ----- ------------  ---------------
    78      9.282207   9 C  s                35      7.015922   4 C  py        
    69     -6.542460   8 O  s               143     -6.463644  16 C  py        
    79     -6.201817   9 C  px              152      4.726960  17 C  py        
   141     -4.688691  16 C  s                44     -4.637447   5 C  py        
    24     -4.576248   3 C  s               159      4.048771  18 N  s         
 
 Vector  196  Occ=0.000000D+00  E= 2.451076D+00
              MO Center=  7.8D-01,  5.2D+00, -1.3D-03, r^2= 2.4D+00
   Bfn.  Coefficient  Atom+Function         Bfn.  Coefficient  Atom+Function  
  ----- ------------  ---------------      ----- ------------  ---------------
    24      6.775178   3 C  s                33     -6.418849   4 C  s         
     6      5.690196   1 C  s                60     -5.300573   7 C  s         
    15     -5.220218   2 C  s                62      5.087486   7 C  py        
    25     -4.191369   3 C  px               87     -3.951911  10 F  s         
    42      3.638280   5 C  s                 8     -3.619088   1 C  py        
 

 center of mass
 --------------
 x =  -0.00015307 y =   0.08742767 z =  -0.00001137

 moments of inertia (a.u.)
 ------------------
       10269.628017347261           0.000000000000           0.000000000001
           0.000000000000        1805.054892874931          -0.000000000001
           0.000000000001          -0.000000000001       12057.008002477502
 
     Multipole analysis of the density
     ---------------------------------
 
     L   x y z        total         alpha         beta         nuclear
     -   - - -        -----         -----         ----         -------
     0   0 0 0     -0.000000    -70.000000    -70.000000    140.000000
 
     1   1 0 0     -0.075808     -0.037904     -0.037904      0.000000
     1   0 1 0      0.057654      0.028827      0.028827      0.000000
     1   0 0 1     -0.000208     -0.000104     -0.000104      0.000000
 
     2   2 0 0    -83.304232   -528.430695   -528.430695    973.557158
     2   1 1 0    -11.716034     15.558220     15.558220    -42.832473
     2   1 0 1     -0.751860      0.004265      0.004265     -0.760391
     2   0 2 0    -86.553144  -2692.811750  -2692.811750   5299.070357
     2   0 1 1      1.708960     -0.014037     -0.014037      1.737035
     2   0 0 2    -80.554461    -44.660928    -44.660928      8.767395
 

 Task  times  cpu:      199.3s     wall:       74.9s
 
 
                                NWChem Input Module
                                -------------------
 
 
 Summary of allocated global arrays
-----------------------------------
  No active global arrays



                         GA Statistics for process    0
                         ------------------------------

       create   destroy   get      put      acc     scatter   gather  read&inc
calls:  184      184     1.64e+05 5608     1.10e+05    0        0     1252     
number of processes/call 7.23e+00 3.56e+01 6.46e+00 0.00e+00 0.00e+00
bytes total:             1.56e+08 1.89e+07 8.43e+07 0.00e+00 0.00e+00 1.00e+04
bytes remote:            1.07e+08 6.87e+06 6.04e+07 0.00e+00 0.00e+00 0.00e+00
Max memory consumed for GA by this process: 3194552 bytes
 
MA_summarize_allocated_blocks: starting scan ...
heap block 'gridpts', handle 95, address 0x1309ea90:
	type of elements:		double precision
	number of elements:		6291456
	address of client space:	0x1309eb00
	index for client space:		19121005
	total number of bytes:		50331768
MA_summarize_allocated_blocks: scan completed: 1 heap block, 0 stack blocks
MA usage statistics:

	allocation statistics:
					      heap	     stack
					      ----	     -----
	current number of blocks	         1	         0
	maximum number of blocks	        21	        53
	current total bytes		  50331768	         0
	maximum total bytes		  56223384	  22525896
	maximum total K-bytes		     56224	     22526
	maximum total M-bytes		        57	        23
 
 
                                     CITATION
                                     --------
                Please cite the following reference when publishing
                           results obtained with NWChem:
 
                 M. Valiev, E.J. Bylaska, N. Govind, K. Kowalski,
              T.P. Straatsma, H.J.J. van Dam, D. Wang, J. Nieplocha,
                        E. Apra, T.L. Windus, W.A. de Jong
                 "NWChem: a comprehensive and scalable open-source
                  solution for large scale molecular simulations"
                      Comput. Phys. Commun. 181, 1477 (2010)
                           doi:10.1016/j.cpc.2010.04.018
 
                                      AUTHORS
                                      -------
          E. Apra, E. J. Bylaska, W. A. de Jong, N. Govind, K. Kowalski,
       T. P. Straatsma, M. Valiev, H. J. J. van Dam, D. Wang, T. L. Windus,
        J. Hammond, J. Autschbach, K. Bhaskaran-Nair, J. Brabec, K. Lopata,
    S. A. Fischer, S. Krishnamoorthy, M. Jacquelin, W. Ma, M. Klemm, O. Villa,
      Y. Chen, V. Anisimov, F. Aquino, S. Hirata, M. T. Hackler, V. Konjkov,
            D. Mejia-Rodriguez, T. Risthaus, M. Malagoli, A. Marenich,
   A. Otero-de-la-Roza, J. Mullin, P. Nichols, R. Peverati, J. Pittner, Y. Zhao,
        P.-D. Fan, A. Fonari, M. J. Williamson, R. J. Harrison, J. R. Rehr,
      M. Dupuis, D. Silverstein, D. M. A. Smith, J. Nieplocha, V. Tipparaju,
    M. Krishnan, B. E. Van Kuiken, A. Vazquez-Mayagoitia, L. Jensen, M. Swart,
      Q. Wu, T. Van Voorhis, A. A. Auer, M. Nooijen, L. D. Crosby, E. Brown,
      G. Cisneros, G. I. Fann, H. Fruchtl, J. Garza, K. Hirao, R. A. Kendall,
      J. A. Nichols, K. Tsemekhman, K. Wolinski, J. Anchell, D. E. Bernholdt,
      P. Borowski, T. Clark, D. Clerc, H. Dachsel, M. J. O. Deegan, K. Dyall,
    D. Elwood, E. Glendening, M. Gutowski, A. C. Hess, J. Jaffe, B. G. Johnson,
     J. Ju, R. Kobayashi, R. Kutteh, Z. Lin, R. Littlefield, X. Long, B. Meng,
      T. Nakajima, S. Niu, L. Pollack, M. Rosing, K. Glaesemann, G. Sandrone,
      M. Stave, H. Taylor, G. Thomas, J. H. van Lenthe, A. T. Wong, Z. Zhang.

 Total times  cpu:      200.5s     wall:       75.1s
