 argument  1 = Frag-00000007.nw
  NWChem w/ OpenMP: maximum threads =    7
                                         
                                         
 
 
              Northwest Computational Chemistry Package (NWChem) 6.8
              ------------------------------------------------------
 
 
                    Environmental Molecular Sciences Laboratory
                       Pacific Northwest National Laboratory
                                Richland, WA 99352
 
                              Copyright (c) 1994-2018
                       Pacific Northwest National Laboratory
                            Battelle Memorial Institute
 
             NWChem is an open-source computational chemistry package
                        distributed under the terms of the
                      Educational Community License (ECL) 2.0
             A copy of the license is included with this distribution
                              in the LICENSE.TXT file
 
                                  ACKNOWLEDGMENT
                                  --------------

            This software and its documentation were developed at the
            EMSL at Pacific Northwest National Laboratory, a multiprogram
            national laboratory, operated for the U.S. Department of Energy
            by Battelle under Contract Number DE-AC05-76RL01830. Support
            for this work was provided by the Department of Energy Office
            of Biological and Environmental Research, Office of Basic
            Energy Sciences, and the Office of Advanced Scientific Computing.


           Job information
           ---------------

    hostname        = i10r3n17
    program         = /public/software/apps/nwchem-DCU/6.8.1/hpcx-2.4.1-intel2017/bin/LINUX64/nwchem
    date            = Sat Mar 19 20:07:05 2022

    compiled        = Wed_Feb_19_20:38:21_2020
    source          = /public/software/apps/nwchem-DCU/6.8.1/hpcx-2.4.1-intel2017
    nwchem branch   = Development
    nwchem revision = nwchem_on_git-947-g0b42727
    ga revision     = 5.7.0
    use scalapack   = F
    input           = Frag-00000007.nw
    prefix          = LoadBalanceApplication.
    data base       = ./LoadBalanceApplication.db
    status          = startup
    nproc           =        4
    time left       =     -1s



           Memory information
           ------------------

    heap     =   13107200 doubles =    100.0 Mbytes
    stack    =   13107197 doubles =    100.0 Mbytes
    global   =   26214400 doubles =    200.0 Mbytes (distinct from heap & stack)
    total    =   52428797 doubles =    400.0 Mbytes
    verify   = yes
    hardfail = no 


           Directory information
           ---------------------
 
  0 permanent = .
  0 scratch   = .
 
 
 
 
                                NWChem Input Module
                                -------------------
 
 
                                   Frag-00000007
                                   -------------

 Scaling coordinates for geometry "geometry" by  1.889725989
 (inverse scale =  0.529177249)

 C1  symmetry detected

          ------
          auto-z
          ------
  no constraints, skipping   0.000000000000000E+000
  no constraints, skipping   0.000000000000000E+000
 
 
                             Geometry "geometry" -> ""
                             -------------------------
 
 Output coordinates in angstroms (scale by  1.889725989 to convert to a.u.)
 
  No.       Tag          Charge          X              Y              Z
 ---- ---------------- ---------- -------------- -------------- --------------
    1 O                    8.0000     1.58297055     2.53420122    -0.46629188
    2 O                    8.0000    -0.21217880     3.15089271     0.75656847
    3 O                    8.0000     1.25879514    -2.41195822     0.70426872
    4 N                    7.0000    -1.81413586     1.18413305     0.13774537
    5 N                    7.0000    -0.32204700    -3.83667265    -0.16597660
    6 C                    6.0000    -0.49743632     1.15979947    -0.46805592
    7 C                    6.0000     0.23740972    -0.07560667     0.01243545
    8 C                    6.0000    -0.53218801    -1.30849380    -0.38968723
    9 C                    6.0000     0.29418785     2.33368580    -0.02576182
   10 C                    6.0000     0.17268311    -2.53047522     0.07214185
   11 H                    1.0000     1.89491650     2.07881480    -1.31468679
   12 H                    1.0000    -1.78450508     0.82792304     1.11253481
   13 H                    1.0000    -2.13567643     2.19596529     0.10327564
   14 H                    1.0000    -0.18913472    -4.54433239     0.58863789
   15 H                    1.0000    -0.79619324    -4.05280616    -1.06881526
   16 H                    1.0000    -0.56964293     1.17442731    -1.55839588
   17 H                    1.0000     1.23432885    -0.13745173    -0.49403118
   18 H                    1.0000     0.42107919    -0.06665482     1.08913615
   19 H                    1.0000    -0.66535160    -1.34500377    -1.48840397
   20 H                    1.0000    -1.54117366    -1.22164759     0.06557060
 
      Atomic Mass 
      ----------- 
 
      O                 15.994910
      N                 14.003070
      C                 12.000000
      H                  1.007825
 

 Effective nuclear repulsion energy (a.u.)     541.0270659648

            Nuclear Dipole moment (a.u.) 
            ----------------------------
        X                 Y               Z
 ---------------- ---------------- ----------------
     0.0000000000    -0.0000000000    -0.0000000000
 


                                Z-matrix (autoz)
                                -------- 

 Units are Angstrom for bonds and degrees for angles
 
      Type          Name      I     J     K     L     M      Value
      ----------- --------  ----- ----- ----- ----- ----- ----------
    1 Stretch                  1     9                       1.37667
    2 Stretch                  1    11                       1.01216
    3 Stretch                  2     9                       1.23947
    4 Stretch                  3    10                       1.26225
    5 Stretch                  4     6                       1.44958
    6 Stretch                  4    12                       1.03826
    7 Stretch                  4    13                       1.06225
    8 Stretch                  5    10                       1.41690
    9 Stretch                  5    14                       1.04302
   10 Stretch                  5    15                       1.04242
   11 Stretch                  6     7                       1.51562
   12 Stretch                  6     9                       1.48334
   13 Stretch                  6    16                       1.09283
   14 Stretch                  7     8                       1.50798
   15 Stretch                  7    17                       1.11990
   16 Stretch                  7    18                       1.09229
   17 Stretch                  8    10                       1.48437
   18 Stretch                  8    19                       1.10736
   19 Stretch                  8    20                       1.11034
   20 Bend                     1     9     2               119.23535
   21 Bend                     1     9     6               121.29576
   22 Bend                     2     9     6               119.46886
   23 Bend                     3    10     5               118.10959
   24 Bend                     3    10     8               119.15098
   25 Bend                     4     6     7               108.75950
   26 Bend                     4     6     9               110.29531
   27 Bend                     4     6    16               110.89907
   28 Bend                     5    10     8               122.73943
   29 Bend                     6     4    12               111.14233
   30 Bend                     6     4    13               106.10375
   31 Bend                     6     7     8               109.53837
   32 Bend                     6     7    17               109.46591
   33 Bend                     6     7    18               112.78966
   34 Bend                     7     6     9               106.96488
   35 Bend                     7     6    16               111.05424
   36 Bend                     7     8    10               110.34925
   37 Bend                     7     8    19               110.66539
   38 Bend                     7     8    20               106.88677
   39 Bend                     8     7    17               106.77179
   40 Bend                     8     7    18               110.81637
   41 Bend                     9     1    11               119.42037
   42 Bend                     9     6    16               108.79389
   43 Bend                    10     5    14               117.34720
   44 Bend                    10     5    15               119.70322
   45 Bend                    10     8    19               109.79527
   46 Bend                    10     8    20               111.61308
   47 Bend                    12     4    13               111.46326
   48 Bend                    14     5    15               122.94957
   49 Bend                    17     7    18               107.25078
   50 Bend                    19     8    20               107.46477
   51 Torsion                  1     9     6     4         179.99255
   52 Torsion                  1     9     6     7          61.87382
   53 Torsion                  1     9     6    16         -58.16350
   54 Torsion                  2     9     1    11        -159.44666
   55 Torsion                  2     9     6     4           0.04775
   56 Torsion                  2     9     6     7        -118.07098
   57 Torsion                  2     9     6    16         121.89170
   58 Torsion                  3    10     5    14          37.12142
   59 Torsion                  3    10     5    15        -142.90637
   60 Torsion                  3    10     8     7           0.00557
   61 Torsion                  3    10     8    19         122.25006
   62 Torsion                  3    10     8    20        -118.69223
   63 Torsion                  4     6     7     8          60.01645
   64 Torsion                  4     6     7    17         176.77194
   65 Torsion                  4     6     7    18         -63.90927
   66 Torsion                  5    10     8     7        -179.99797
   67 Torsion                  5    10     8    19         -57.75347
   68 Torsion                  5    10     8    20          61.30423
   69 Torsion                  6     7     8    10         179.98077
   70 Torsion                  6     7     8    19          58.24970
   71 Torsion                  6     7     8    20         -58.47552
   72 Torsion                  6     9     1    11          20.60841
   73 Torsion                  7     6     4    12          36.80265
   74 Torsion                  7     6     4    13         158.13371
   75 Torsion                  8     7     6     9         179.13350
   76 Torsion                  8     7     6    16         -62.28884
   77 Torsion                  8    10     5    14        -142.87508
   78 Torsion                  8    10     5    15          37.09713
   79 Torsion                  9     6     4    12         -80.20810
   80 Torsion                  9     6     4    13          41.12296
   81 Torsion                  9     6     7    17         -64.11102
   82 Torsion                  9     6     7    18          55.20777
   83 Torsion                 10     8     7    17          61.53875
   84 Torsion                 10     8     7    18         -54.94488
   85 Torsion                 12     4     6    16         159.20185
   86 Torsion                 13     4     6    16         -79.46709
   87 Torsion                 16     6     7    17          54.46665
   88 Torsion                 16     6     7    18         173.78544
   89 Torsion                 17     7     8    19         -60.19232
   90 Torsion                 17     7     8    20        -176.91754
   91 Torsion                 18     7     8    19        -176.67595
   92 Torsion                 18     7     8    20          66.59883
 
 
            XYZ format geometry
            -------------------
    20
 geometry
 O                     1.58297055     2.53420122    -0.46629188
 O                    -0.21217880     3.15089271     0.75656847
 O                     1.25879514    -2.41195822     0.70426872
 N                    -1.81413586     1.18413305     0.13774537
 N                    -0.32204700    -3.83667265    -0.16597660
 C                    -0.49743632     1.15979947    -0.46805592
 C                     0.23740972    -0.07560667     0.01243545
 C                    -0.53218801    -1.30849380    -0.38968723
 C                     0.29418785     2.33368580    -0.02576182
 C                     0.17268311    -2.53047522     0.07214185
 H                     1.89491650     2.07881480    -1.31468679
 H                    -1.78450508     0.82792304     1.11253481
 H                    -2.13567643     2.19596529     0.10327564
 H                    -0.18913472    -4.54433239     0.58863789
 H                    -0.79619324    -4.05280616    -1.06881526
 H                    -0.56964293     1.17442731    -1.55839588
 H                     1.23432885    -0.13745173    -0.49403118
 H                     0.42107919    -0.06665482     1.08913615
 H                    -0.66535160    -1.34500377    -1.48840397
 H                    -1.54117366    -1.22164759     0.06557060
 
 ==============================================================================
                                internuclear distances
 ------------------------------------------------------------------------------
       center one      |      center two      | atomic units |  angstroms
 ------------------------------------------------------------------------------
    6 C                |   4 N                |     2.73931  |     1.44958
    7 C                |   6 C                |     2.86410  |     1.51562
    8 C                |   7 C                |     2.84966  |     1.50798
    9 C                |   1 O                |     2.60154  |     1.37667
    9 C                |   2 O                |     2.34225  |     1.23947
    9 C                |   6 C                |     2.80311  |     1.48334
   10 C                |   3 O                |     2.38530  |     1.26225
   10 C                |   5 N                |     2.67756  |     1.41690
   10 C                |   8 C                |     2.80506  |     1.48437
   11 H                |   1 O                |     1.91270  |     1.01216
   12 H                |   4 N                |     1.96202  |     1.03826
   13 H                |   4 N                |     2.00737  |     1.06225
   14 H                |   5 N                |     1.97102  |     1.04302
   15 H                |   5 N                |     1.96989  |     1.04242
   16 H                |   6 C                |     2.06514  |     1.09283
   17 H                |   7 C                |     2.11631  |     1.11990
   18 H                |   7 C                |     2.06413  |     1.09229
   19 H                |   8 C                |     2.09261  |     1.10736
   20 H                |   8 C                |     2.09824  |     1.11034
 ------------------------------------------------------------------------------
                         number of included internuclear distances:         19
 ==============================================================================



 ==============================================================================
                                 internuclear angles
 ------------------------------------------------------------------------------
        center 1       |       center 2       |       center 3       |  degrees
 ------------------------------------------------------------------------------
    9 C                |   1 O                |  11 H                |   119.42
    6 C                |   4 N                |  12 H                |   111.14
    6 C                |   4 N                |  13 H                |   106.10
   12 H                |   4 N                |  13 H                |   111.46
   10 C                |   5 N                |  14 H                |   117.35
   10 C                |   5 N                |  15 H                |   119.70
   14 H                |   5 N                |  15 H                |   122.95
    4 N                |   6 C                |   7 C                |   108.76
    4 N                |   6 C                |   9 C                |   110.30
    4 N                |   6 C                |  16 H                |   110.90
    7 C                |   6 C                |   9 C                |   106.96
    7 C                |   6 C                |  16 H                |   111.05
    9 C                |   6 C                |  16 H                |   108.79
    6 C                |   7 C                |   8 C                |   109.54
    6 C                |   7 C                |  17 H                |   109.47
    6 C                |   7 C                |  18 H                |   112.79
    8 C                |   7 C                |  17 H                |   106.77
    8 C                |   7 C                |  18 H                |   110.82
   17 H                |   7 C                |  18 H                |   107.25
    7 C                |   8 C                |  10 C                |   110.35
    7 C                |   8 C                |  19 H                |   110.67
    7 C                |   8 C                |  20 H                |   106.89
   10 C                |   8 C                |  19 H                |   109.80
   10 C                |   8 C                |  20 H                |   111.61
   19 H                |   8 C                |  20 H                |   107.46
    1 O                |   9 C                |   2 O                |   119.24
    1 O                |   9 C                |   6 C                |   121.30
    2 O                |   9 C                |   6 C                |   119.47
    3 O                |  10 C                |   5 N                |   118.11
    3 O                |  10 C                |   8 C                |   119.15
    5 N                |  10 C                |   8 C                |   122.74
 ------------------------------------------------------------------------------
                            number of included internuclear angles:         31
 ==============================================================================





 Summary of "ao basis" -> "" (cartesian)
 ------------------------------------------------------------------------------
       Tag                 Description            Shells   Functions and Types
 ---------------- ------------------------------  ------  ---------------------
 *                           6-31g                    on all atoms 


 
                                 NWChem DFT Module
                                 -----------------
 
 
                                   Frag-00000007
 
 
                      Basis "ao basis" -> "ao basis" (cartesian)
                      -----
  O (Oxygen)
  ----------
            Exponent  Coefficients 
       -------------- ---------------------------------------------------------
  1 S  5.48467170E+03  0.001831
  1 S  8.25234950E+02  0.013950
  1 S  1.88046960E+02  0.068445
  1 S  5.29645000E+01  0.232714
  1 S  1.68975700E+01  0.470193
  1 S  5.79963530E+00  0.358521
 
  2 S  1.55396160E+01 -0.110778
  2 S  3.59993360E+00 -0.148026
  2 S  1.01376180E+00  1.130767
 
  3 P  1.55396160E+01  0.070874
  3 P  3.59993360E+00  0.339753
  3 P  1.01376180E+00  0.727159
 
  4 S  2.70005800E-01  1.000000
 
  5 P  2.70005800E-01  1.000000
 
  N (Nitrogen)
  ------------
            Exponent  Coefficients 
       -------------- ---------------------------------------------------------
  1 S  4.17351100E+03  0.001835
  1 S  6.27457900E+02  0.013995
  1 S  1.42902100E+02  0.068587
  1 S  4.02343300E+01  0.232241
  1 S  1.28202100E+01  0.469070
  1 S  4.39043700E+00  0.360455
 
  2 S  1.16263580E+01 -0.114961
  2 S  2.71628000E+00 -0.169118
  2 S  7.72218000E-01  1.145852
 
  3 P  1.16263580E+01  0.067580
  3 P  2.71628000E+00  0.323907
  3 P  7.72218000E-01  0.740895
 
  4 S  2.12031300E-01  1.000000
 
  5 P  2.12031300E-01  1.000000
 
  C (Carbon)
  ----------
            Exponent  Coefficients 
       -------------- ---------------------------------------------------------
  1 S  3.04752490E+03  0.001835
  1 S  4.57369510E+02  0.014037
  1 S  1.03948690E+02  0.068843
  1 S  2.92101550E+01  0.232184
  1 S  9.28666300E+00  0.467941
  1 S  3.16392700E+00  0.362312
 
  2 S  7.86827240E+00 -0.119332
  2 S  1.88128850E+00 -0.160854
  2 S  5.44249300E-01  1.143456
 
  3 P  7.86827240E+00  0.068999
  3 P  1.88128850E+00  0.316424
  3 P  5.44249300E-01  0.744308
 
  4 S  1.68714400E-01  1.000000
 
  5 P  1.68714400E-01  1.000000
 
  H (Hydrogen)
  ------------
            Exponent  Coefficients 
       -------------- ---------------------------------------------------------
  1 S  1.87311370E+01  0.033495
  1 S  2.82539370E+00  0.234727
  1 S  6.40121700E-01  0.813757
 
  2 S  1.61277800E-01  1.000000
 


 Summary of "ao basis" -> "ao basis" (cartesian)
 ------------------------------------------------------------------------------
       Tag                 Description            Shells   Functions and Types
 ---------------- ------------------------------  ------  ---------------------
 O                           6-31g                   5        9   3s2p
 N                           6-31g                   5        9   3s2p
 C                           6-31g                   5        9   3s2p
 H                           6-31g                   2        2   2s




 Summary of "ao basis" -> "ao basis" (cartesian)
 ------------------------------------------------------------------------------
       Tag                 Description            Shells   Functions and Types
 ---------------- ------------------------------  ------  ---------------------
 O                           6-31g                   5        9   3s2p
 N                           6-31g                   5        9   3s2p
 C                           6-31g                   5        9   3s2p
 H                           6-31g                   2        2   2s


  Caching 1-el integrals 
 
            General Information
            -------------------
          SCF calculation type: DFT
          Wavefunction type:  closed shell.
          No. of atoms     :    20
          No. of electrons :    78
           Alpha electrons :    39
            Beta electrons :    39
          Charge           :     0
          Spin multiplicity:     1
          Use of symmetry is: off; symmetry adaption is: off
          Maximum number of iterations:  30
          AO basis - number of functions:   110
                     number of shells:    70
          Convergence on energy requested:  1.00D-06
          Convergence on density requested:  1.00D-05
          Convergence on gradient requested:  5.00D-04
 
              XC Information
              --------------
                       M06-2X Method XC Functional
                     Hartree-Fock (Exact) Exchange  0.540          
                        M06-2X Exchange Functional  1.000          
                      M06-2X Correlation Potential  1.000          
 
             Grid Information
             ----------------
          Grid used for XC integration:  medium    
          Radial quadrature: Mura-Knowles        
          Angular quadrature: Lebedev. 
          Tag              B.-S. Rad. Rad. Pts. Rad. Cut. Ang. Pts.
          ---              ---------- --------- --------- ---------
          O                   0.60       49          13.0       434
          N                   0.65       49          14.0       434
          C                   0.70       49          14.0       434
          H                   0.35       45          14.0       434
          Grid pruning is: on 
          Number of quadrature shells:   940
          Spatial weights used:  Erf1
 
          Convergence Information
          -----------------------
          Convergence aids based upon iterative change in 
          total energy or number of iterations. 
          Levelshifting, if invoked, occurs when the 
          HOMO/LUMO gap drops below (HL_TOL):  1.00D-02
          DIIS, if invoked, will attempt to extrapolate 
          using up to (NFOCK): 10 stored Fock matrices.

                    Damping( 0%)  Levelshifting(0.5)       DIIS
                  --------------- ------------------- ---------------
          dE  on:    start            ASAP                start   
          dE off:    2 iters         30 iters            30 iters 

 
      Screening Tolerance Information
      -------------------------------
          Density screening/tol_rho:  1.00D-10
          AO Gaussian exp screening on grid/accAOfunc:  14
          CD Gaussian exp screening on grid/accCDfunc:  20
          XC Gaussian exp screening on grid/accXCfunc:  20
          Schwarz screening/accCoul:  1.00D-08

 
      Superposition of Atomic Density Guess
      -------------------------------------
 
 Sum of atomic energies:        -526.13412932
 
      Non-variational initial energy
      ------------------------------

 Total energy =    -531.488962
 1-e energy   =   -1791.350001
 2-e energy   =     718.833972
 HOMO         =      -0.288715
 LUMO         =       0.028196
 
   Time after variat. SCF:      0.7
   Time prior to 1st pass:      0.7

 Grid_pts file          = ./LoadBalanceApplication.gridpts.0
 Record size in doubles =  12289        No. of grid_pts per rec  =   3070
 Max. records in memory =     38        Max. recs in file   = 253312716


           Memory utilization after 1st SCF pass: 
           Heap Space remaining (MW):        6.32             6319896
          Stack Space remaining (MW):       13.11            13105972

   convergence    iter        energy       DeltaE   RMS-Dens  Diis-err    time
 ---------------- ----- ----------------- --------- --------- ---------  ------
 d= 0,ls=0.0,diis     1   -530.9847518835 -1.07D+03  3.29D-02  2.45D+00     2.6
 d= 0,ls=0.0,diis     2   -530.6016435291  3.83D-01  2.14D-02  7.19D+00     4.3
 d= 0,ls=0.0,diis     3   -531.3086263629 -7.07D-01  2.36D-03  7.24D-02     6.2
 d= 0,ls=0.0,diis     4   -531.3132539655 -4.63D-03  1.17D-03  3.58D-02     7.9
 d= 0,ls=0.0,diis     5   -531.3164927454 -3.24D-03  2.97D-04  5.13D-04    10.1
  Resetting Diis
 d= 0,ls=0.0,diis     6   -531.3165532659 -6.05D-05  1.38D-04  1.15D-04    12.1
 d= 0,ls=0.0,diis     7   -531.3165682387 -1.50D-05  7.34D-05  1.65D-05    13.9
 d= 0,ls=0.0,diis     8   -531.3165673342  9.04D-07  3.50D-05  2.86D-05    15.8
 d= 0,ls=0.0,diis     9   -531.3165702709 -2.94D-06  8.84D-06  8.05D-07    17.6
 d= 0,ls=0.0,diis    10   -531.3165703547 -8.38D-08  6.01D-06  8.42D-08    19.7


         Total DFT energy =     -531.316570354701
      One electron energy =    -1796.884747550745
           Coulomb energy =      794.698785319555
    Exchange-Corr. energy =      -70.157674088275
 Nuclear repulsion energy =      541.027065964765

 Numeric. integr. density =       77.999983646723

     Total iterative time =     18.9s


 
                       DFT Final Molecular Orbital Analysis
                       ------------------------------------
 
 Vector    1  Occ=2.000000D+00  E=-1.969468D+01
              MO Center=  1.6D+00,  2.5D+00, -4.7D-01, r^2= 1.5D-02
   Bfn.  Coefficient  Atom+Function         Bfn.  Coefficient  Atom+Function  
  ----- ------------  ---------------      ----- ------------  ---------------
     1      0.995707   1 O  s                 2      0.025628   1 O  s         
 
 Vector    2  Occ=2.000000D+00  E=-1.964353D+01
              MO Center= -2.1D-01,  3.2D+00,  7.6D-01, r^2= 1.5D-02
   Bfn.  Coefficient  Atom+Function         Bfn.  Coefficient  Atom+Function  
  ----- ------------  ---------------      ----- ------------  ---------------
    10      0.995732   2 O  s                11      0.025842   2 O  s         
 
 Vector    3  Occ=2.000000D+00  E=-1.962266D+01
              MO Center=  1.3D+00, -2.4D+00,  7.0D-01, r^2= 1.5D-02
   Bfn.  Coefficient  Atom+Function         Bfn.  Coefficient  Atom+Function  
  ----- ------------  ---------------      ----- ------------  ---------------
    19      0.995728   3 O  s                20      0.025677   3 O  s         
 
 Vector    4  Occ=2.000000D+00  E=-1.478137D+01
              MO Center= -3.2D-01, -3.8D+00, -1.7D-01, r^2= 2.0D-02
   Bfn.  Coefficient  Atom+Function         Bfn.  Coefficient  Atom+Function  
  ----- ------------  ---------------      ----- ------------  ---------------
    37      0.995828   5 N  s                38      0.027543   5 N  s         
 
 Vector    5  Occ=2.000000D+00  E=-1.475168D+01
              MO Center= -1.8D+00,  1.2D+00,  1.4D-01, r^2= 2.0D-02
   Bfn.  Coefficient  Atom+Function         Bfn.  Coefficient  Atom+Function  
  ----- ------------  ---------------      ----- ------------  ---------------
    28      0.995863   4 N  s                29      0.027771   4 N  s         
 
 Vector    6  Occ=2.000000D+00  E=-1.069944D+01
              MO Center=  2.9D-01,  2.3D+00, -2.6D-02, r^2= 2.8D-02
   Bfn.  Coefficient  Atom+Function         Bfn.  Coefficient  Atom+Function  
  ----- ------------  ---------------      ----- ------------  ---------------
    73      0.995747   9 C  s                74      0.030367   9 C  s         
 
 Vector    7  Occ=2.000000D+00  E=-1.067358D+01
              MO Center=  1.7D-01, -2.5D+00,  7.2D-02, r^2= 2.8D-02
   Bfn.  Coefficient  Atom+Function         Bfn.  Coefficient  Atom+Function  
  ----- ------------  ---------------      ----- ------------  ---------------
    82      0.995741  10 C  s                83      0.029786  10 C  s         
 
 Vector    8  Occ=2.000000D+00  E=-1.060369D+01
              MO Center= -5.0D-01,  1.2D+00, -4.7D-01, r^2= 2.8D-02
   Bfn.  Coefficient  Atom+Function         Bfn.  Coefficient  Atom+Function  
  ----- ------------  ---------------      ----- ------------  ---------------
    46      0.996250   6 C  s                51     -0.046154   6 C  s         
    47      0.035521   6 C  s         
 
 Vector    9  Occ=2.000000D+00  E=-1.056854D+01
              MO Center= -5.2D-01, -1.3D+00, -3.8D-01, r^2= 6.6D-02
   Bfn.  Coefficient  Atom+Function         Bfn.  Coefficient  Atom+Function  
  ----- ------------  ---------------      ----- ------------  ---------------
    64      0.987440   8 C  s                55      0.130830   7 C  s         
    69     -0.037745   8 C  s                65      0.033767   8 C  s         
 
 Vector   10  Occ=2.000000D+00  E=-1.056729D+01
              MO Center=  2.2D-01, -9.7D-02,  5.5D-03, r^2= 6.6D-02
   Bfn.  Coefficient  Atom+Function         Bfn.  Coefficient  Atom+Function  
  ----- ------------  ---------------      ----- ------------  ---------------
    55      0.987414   7 C  s                64     -0.131032   8 C  s         
    60     -0.036048   7 C  s                56      0.033633   7 C  s         
 
 Vector   11  Occ=2.000000D+00  E=-1.232798D+00
              MO Center=  7.6D-01,  2.6D+00, -8.6D-02, r^2= 1.3D+00
   Bfn.  Coefficient  Atom+Function         Bfn.  Coefficient  Atom+Function  
  ----- ------------  ---------------      ----- ------------  ---------------
     6      0.353335   1 O  s                 2      0.331762   1 O  s         
    11      0.250216   2 O  s                74      0.245071   9 C  s         
    15      0.238888   2 O  s                 1     -0.151771   1 O  s         
    73     -0.119504   9 C  s                10     -0.113408   2 O  s         
     3     -0.081617   1 O  px               91      0.076983  11 H  s         
 
 Vector   12  Occ=2.000000D+00  E=-1.164300D+00
              MO Center=  8.2D-01, -2.5D+00,  4.5D-01, r^2= 7.6D-01
   Bfn.  Coefficient  Atom+Function         Bfn.  Coefficient  Atom+Function  
  ----- ------------  ---------------      ----- ------------  ---------------
    24      0.406537   3 O  s                20      0.395844   3 O  s         
    83      0.249184  10 C  s                19     -0.180550   3 O  s         
    21     -0.137867   3 O  px               84      0.131444  10 C  px        
    82     -0.122320  10 C  s                38      0.097859   5 N  s         
    23     -0.079190   3 O  pz               86      0.078671  10 C  pz        
 
 Vector   13  Occ=2.000000D+00  E=-1.149951D+00
              MO Center=  5.5D-01,  2.7D+00,  6.7D-02, r^2= 1.6D+00
   Bfn.  Coefficient  Atom+Function         Bfn.  Coefficient  Atom+Function  
  ----- ------------  ---------------      ----- ------------  ---------------
     6      0.360849   1 O  s                15     -0.355691   2 O  s         
    11     -0.338158   2 O  s                 2      0.307189   1 O  s         
    10      0.153787   2 O  s                75      0.152432   9 C  px        
     1     -0.140980   1 O  s                77     -0.132161   9 C  pz        
    13      0.091761   2 O  py               76     -0.091384   9 C  py        
 
 Vector   14  Occ=2.000000D+00  E=-1.020144D+00
              MO Center= -1.1D+00,  1.2D+00,  2.7D-02, r^2= 1.6D+00
   Bfn.  Coefficient  Atom+Function         Bfn.  Coefficient  Atom+Function  
  ----- ------------  ---------------      ----- ------------  ---------------
    33      0.334216   4 N  s                29      0.318644   4 N  s         
    47      0.225938   6 C  s                51      0.171321   6 C  s         
    28     -0.154567   4 N  s                46     -0.121191   6 C  s         
    56      0.106250   7 C  s                15     -0.100154   2 O  s         
    11     -0.095513   2 O  s                93      0.093342  12 H  s         
 
 Vector   15  Occ=2.000000D+00  E=-9.930471D-01
              MO Center= -1.7D-01, -3.5D+00, -9.3D-02, r^2= 1.2D+00
   Bfn.  Coefficient  Atom+Function         Bfn.  Coefficient  Atom+Function  
  ----- ------------  ---------------      ----- ------------  ---------------
    42      0.432993   5 N  s                38      0.392745   5 N  s         
    24     -0.194788   3 O  s                37     -0.187387   5 N  s         
    20     -0.168754   3 O  s                84     -0.125556  10 C  px        
    85     -0.123979  10 C  py               99      0.118239  15 H  s         
    97      0.112589  14 H  s                83      0.096812  10 C  s         
 
 Vector   16  Occ=2.000000D+00  E=-9.047838D-01
              MO Center= -4.0D-01, -4.5D-01, -1.3D-01, r^2= 2.9D+00
   Bfn.  Coefficient  Atom+Function         Bfn.  Coefficient  Atom+Function  
  ----- ------------  ---------------      ----- ------------  ---------------
    65      0.247871   8 C  s                56      0.231243   7 C  s         
    69      0.231013   8 C  s                33     -0.223348   4 N  s         
    60      0.203969   7 C  s                29     -0.180007   4 N  s         
    64     -0.132549   8 C  s                55     -0.123978   7 C  s         
    85      0.094458  10 C  py               48      0.088136   6 C  px        
 
 Vector   17  Occ=2.000000D+00  E=-8.297592D-01
              MO Center= -3.9D-01,  4.1D-01, -2.1D-01, r^2= 4.4D+00
   Bfn.  Coefficient  Atom+Function         Bfn.  Coefficient  Atom+Function  
  ----- ------------  ---------------      ----- ------------  ---------------
    51     -0.238194   6 C  s                33      0.230895   4 N  s         
    47     -0.205104   6 C  s                69      0.194784   8 C  s         
    65      0.185871   8 C  s                29      0.166822   4 N  s         
    74     -0.142201   9 C  s                76      0.128424   9 C  py        
    48     -0.120108   6 C  px               58     -0.113749   7 C  py        
 
 Vector   18  Occ=2.000000D+00  E=-7.396068D-01
              MO Center=  1.8D-01,  4.4D-02, -1.6D-01, r^2= 5.9D+00
   Bfn.  Coefficient  Atom+Function         Bfn.  Coefficient  Atom+Function  
  ----- ------------  ---------------      ----- ------------  ---------------
    60      0.260474   7 C  s                56      0.212569   7 C  s         
    74     -0.185235   9 C  s                 3      0.155704   1 O  px        
    49     -0.153598   6 C  py               83     -0.151290  10 C  s         
    78     -0.150459   9 C  s                67      0.143761   8 C  py        
    15      0.139625   2 O  s                87     -0.121486  10 C  s         
 
 Vector   19  Occ=2.000000D+00  E=-7.039946D-01
              MO Center=  7.8D-01,  1.9D+00, -3.7D-01, r^2= 3.7D+00
   Bfn.  Coefficient  Atom+Function         Bfn.  Coefficient  Atom+Function  
  ----- ------------  ---------------      ----- ------------  ---------------
     3      0.280086   1 O  px                5     -0.281212   1 O  pz        
    75     -0.242222   9 C  px               91      0.205008  11 H  s         
    51      0.180876   6 C  s                 9     -0.141724   1 O  pz        
    74     -0.139454   9 C  s                 7      0.127603   1 O  px        
    78     -0.127985   9 C  s                15      0.124310   2 O  s         
 
 Vector   20  Occ=2.000000D+00  E=-6.518512D-01
              MO Center= -1.9D-01, -1.8D+00, -1.7D-01, r^2= 5.4D+00
   Bfn.  Coefficient  Atom+Function         Bfn.  Coefficient  Atom+Function  
  ----- ------------  ---------------      ----- ------------  ---------------
    40      0.260064   5 N  py               83      0.219673  10 C  s         
    24     -0.189775   3 O  s                87      0.167391  10 C  s         
    69     -0.156458   8 C  s                44      0.132805   5 N  py        
    20     -0.125969   3 O  s                60      0.123820   7 C  s         
    65     -0.118284   8 C  s                85     -0.110619  10 C  py        
 
 Vector   21  Occ=2.000000D+00  E=-6.262988D-01
              MO Center= -2.3D-01, -6.9D-01, -2.1D-01, r^2= 7.9D+00
   Bfn.  Coefficient  Atom+Function         Bfn.  Coefficient  Atom+Function  
  ----- ------------  ---------------      ----- ------------  ---------------
    85     -0.196426  10 C  py               41      0.187865   5 N  pz        
    49     -0.183237   6 C  py               51      0.160516   6 C  s         
    99     -0.151439  15 H  s                39      0.136536   5 N  px        
    40      0.135643   5 N  py               75      0.129560   9 C  px        
    76      0.125057   9 C  py               78     -0.124430   9 C  s         
 
 Vector   22  Occ=2.000000D+00  E=-6.049662D-01
              MO Center= -3.2D-01, -1.8D+00, -1.5D-01, r^2= 7.6D+00
   Bfn.  Coefficient  Atom+Function         Bfn.  Coefficient  Atom+Function  
  ----- ------------  ---------------      ----- ------------  ---------------
    41      0.304129   5 N  pz               97      0.183473  14 H  s         
    45      0.167903   5 N  pz               69      0.160130   8 C  s         
    99     -0.146210  15 H  s                40     -0.139794   5 N  py        
    50      0.130279   6 C  pz               86      0.117601  10 C  pz        
    66     -0.109235   8 C  px               78      0.105278   9 C  s         
 
 Vector   23  Occ=2.000000D+00  E=-5.952947D-01
              MO Center= -6.0D-01, -4.0D-01, -7.4D-02, r^2= 7.1D+00
   Bfn.  Coefficient  Atom+Function         Bfn.  Coefficient  Atom+Function  
  ----- ------------  ---------------      ----- ------------  ---------------
    41      0.201782   5 N  pz               31      0.200548   4 N  py        
    50     -0.167207   6 C  pz               95      0.148209  13 H  s         
    66      0.137451   8 C  px               57      0.132668   7 C  px        
    97      0.124604  14 H  s                24     -0.121807   3 O  s         
    30     -0.121397   4 N  px               45      0.119112   5 N  pz        
 
 Vector   24  Occ=2.000000D+00  E=-5.687271D-01
              MO Center= -3.3D-01, -4.2D-01, -1.8D-01, r^2= 4.8D+00
   Bfn.  Coefficient  Atom+Function         Bfn.  Coefficient  Atom+Function  
  ----- ------------  ---------------      ----- ------------  ---------------
    68      0.238889   8 C  pz               48     -0.187334   6 C  px        
    85      0.174715  10 C  py               32     -0.173621   4 N  pz        
    59      0.162706   7 C  pz               51      0.161710   6 C  s         
   107     -0.159259  19 H  s                30      0.146655   4 N  px        
    69     -0.115440   8 C  s                 4      0.107557   1 O  py        
 
 Vector   25  Occ=2.000000D+00  E=-5.410746D-01
              MO Center= -3.5D-01,  1.0D+00,  2.5D-01, r^2= 6.9D+00
   Bfn.  Coefficient  Atom+Function         Bfn.  Coefficient  Atom+Function  
  ----- ------------  ---------------      ----- ------------  ---------------
    15      0.290286   2 O  s                13      0.205218   2 O  py        
    14      0.176720   2 O  pz               32      0.177076   4 N  pz        
    85      0.174392  10 C  py               31     -0.146653   4 N  py        
    77     -0.143501   9 C  pz               93      0.141222  12 H  s         
    11      0.139670   2 O  s                75      0.123389   9 C  px        
 
 Vector   26  Occ=2.000000D+00  E=-5.362867D-01
              MO Center=  4.8D-02, -2.7D-01,  4.6D-02, r^2= 7.2D+00
   Bfn.  Coefficient  Atom+Function         Bfn.  Coefficient  Atom+Function  
  ----- ------------  ---------------      ----- ------------  ---------------
    77      0.187630   9 C  pz               66      0.166357   8 C  px        
    40     -0.156860   5 N  py               85      0.155406  10 C  py        
     5      0.150790   1 O  pz               23     -0.145879   3 O  pz        
     3      0.138461   1 O  px               68     -0.138852   8 C  pz        
    24     -0.129589   3 O  s               109     -0.125167  20 H  s         
 
 Vector   27  Occ=2.000000D+00  E=-5.291252D-01
              MO Center= -1.6D-01,  1.8D+00,  2.6D-01, r^2= 5.1D+00
   Bfn.  Coefficient  Atom+Function         Bfn.  Coefficient  Atom+Function  
  ----- ------------  ---------------      ----- ------------  ---------------
    14      0.278057   2 O  pz                5      0.218881   1 O  pz        
    76     -0.211308   9 C  py               31      0.186094   4 N  py        
    15      0.166512   2 O  s                32     -0.158328   4 N  pz        
    18      0.148676   2 O  pz               75      0.142306   9 C  px        
    93     -0.139893  12 H  s                 4     -0.136646   1 O  py        
 
 Vector   28  Occ=2.000000D+00  E=-4.965437D-01
              MO Center=  2.6D-01, -3.5D-01,  1.7D-01, r^2= 7.4D+00
   Bfn.  Coefficient  Atom+Function         Bfn.  Coefficient  Atom+Function  
  ----- ------------  ---------------      ----- ------------  ---------------
    84      0.262696  10 C  px               23     -0.215574   3 O  pz        
    24     -0.184318   3 O  s                21     -0.164208   3 O  px        
    77     -0.159155   9 C  pz               12     -0.153643   2 O  px        
    67      0.151702   8 C  py               50      0.150177   6 C  pz        
     3     -0.148901   1 O  px               13      0.137002   2 O  py        
 
 Vector   29  Occ=2.000000D+00  E=-4.894115D-01
              MO Center= -9.5D-03, -2.2D-01,  1.0D-01, r^2= 7.3D+00
   Bfn.  Coefficient  Atom+Function         Bfn.  Coefficient  Atom+Function  
  ----- ------------  ---------------      ----- ------------  ---------------
    21      0.251282   3 O  px               30      0.189992   4 N  px        
    13      0.171713   2 O  py               86     -0.170054  10 C  pz        
    24      0.165177   3 O  s                77     -0.155857   9 C  pz        
    84     -0.145537  10 C  px               25      0.139629   3 O  px        
    67     -0.133958   8 C  py               68     -0.133490   8 C  pz        
 
 Vector   30  Occ=2.000000D+00  E=-4.582548D-01
              MO Center=  8.8D-01,  2.1D+00, -2.7D-01, r^2= 3.5D+00
   Bfn.  Coefficient  Atom+Function         Bfn.  Coefficient  Atom+Function  
  ----- ------------  ---------------      ----- ------------  ---------------
     4      0.422873   1 O  py                8      0.280085   1 O  py        
     6      0.212406   1 O  s                 3      0.183495   1 O  px        
    48      0.165893   6 C  px               12     -0.156881   2 O  px        
    51      0.155073   6 C  s                 5      0.149034   1 O  pz        
     7      0.146090   1 O  px               32      0.138594   4 N  pz        
 
 Vector   31  Occ=2.000000D+00  E=-4.465477D-01
              MO Center=  1.1D-01, -3.9D-01, -2.6D-02, r^2= 5.6D+00
   Bfn.  Coefficient  Atom+Function         Bfn.  Coefficient  Atom+Function  
  ----- ------------  ---------------      ----- ------------  ---------------
    59      0.245912   7 C  pz               50     -0.219583   6 C  pz        
    86     -0.180984  10 C  pz               39      0.168050   5 N  px        
    23     -0.162524   3 O  pz              105      0.156576  18 H  s         
   101      0.154078  16 H  s                21      0.148583   3 O  px        
    63      0.149080   7 C  pz               49      0.138049   6 C  py        
 
 Vector   32  Occ=2.000000D+00  E=-4.437516D-01
              MO Center= -1.1D-03, -1.7D-01, -8.5D-03, r^2= 4.7D+00
   Bfn.  Coefficient  Atom+Function         Bfn.  Coefficient  Atom+Function  
  ----- ------------  ---------------      ----- ------------  ---------------
    58      0.262657   7 C  py               66     -0.209005   8 C  px        
    67     -0.206247   8 C  py               12      0.179420   2 O  px        
    59      0.169917   7 C  pz               68     -0.149612   8 C  pz        
    21     -0.143205   3 O  px                6     -0.138718   1 O  s         
    57      0.138143   7 C  px                5     -0.134343   1 O  pz        
 
 Vector   33  Occ=2.000000D+00  E=-4.267146D-01
              MO Center=  1.7D-02, -4.6D-02, -6.3D-02, r^2= 5.1D+00
   Bfn.  Coefficient  Atom+Function         Bfn.  Coefficient  Atom+Function  
  ----- ------------  ---------------      ----- ------------  ---------------
    57      0.281812   7 C  px               21     -0.197231   3 O  px        
    49      0.192693   6 C  py               86      0.183780  10 C  pz        
   103      0.175781  17 H  s                48     -0.169542   6 C  px        
   104      0.162366  17 H  s                30      0.159042   4 N  px        
    31     -0.148384   4 N  py               61      0.129557   7 C  px        
 
 Vector   34  Occ=2.000000D+00  E=-4.128861D-01
              MO Center=  3.2D-02, -1.2D+00, -6.4D-02, r^2= 3.9D+00
   Bfn.  Coefficient  Atom+Function         Bfn.  Coefficient  Atom+Function  
  ----- ------------  ---------------      ----- ------------  ---------------
    23      0.215336   3 O  pz               68     -0.212835   8 C  pz        
   109     -0.174445  20 H  s                59      0.166943   7 C  pz        
    66      0.163649   8 C  px               21     -0.162691   3 O  px        
    86      0.155591  10 C  pz              107      0.151620  19 H  s         
    72     -0.150385   8 C  pz               27      0.147529   3 O  pz        
 
 Vector   35  Occ=2.000000D+00  E=-3.863152D-01
              MO Center=  5.6D-01,  2.6D+00,  1.6D-01, r^2= 2.6D+00
   Bfn.  Coefficient  Atom+Function         Bfn.  Coefficient  Atom+Function  
  ----- ------------  ---------------      ----- ------------  ---------------
    14      0.370002   2 O  pz                4      0.322603   1 O  py        
    18      0.269943   2 O  pz                8      0.259316   1 O  py        
     5     -0.241680   1 O  pz                9     -0.202223   1 O  pz        
    13     -0.184721   2 O  py                3     -0.143623   1 O  px        
    17     -0.135613   2 O  py               12      0.134790   2 O  px        
 
 Vector   36  Occ=2.000000D+00  E=-3.550850D-01
              MO Center= -1.3D-02,  2.3D+00,  4.7D-01, r^2= 4.5D+00
   Bfn.  Coefficient  Atom+Function         Bfn.  Coefficient  Atom+Function  
  ----- ------------  ---------------      ----- ------------  ---------------
    12      0.435765   2 O  px               13      0.350495   2 O  py        
    51      0.300628   6 C  s                16      0.288225   2 O  px        
    17      0.237662   2 O  py                6     -0.209272   1 O  s         
    79      0.198183   9 C  px                7      0.193529   1 O  px        
    53      0.187684   6 C  py                3      0.184486   1 O  px        
 
 Vector   37  Occ=2.000000D+00  E=-3.368566D-01
              MO Center=  6.2D-01, -2.1D+00,  3.9D-01, r^2= 4.3D+00
   Bfn.  Coefficient  Atom+Function         Bfn.  Coefficient  Atom+Function  
  ----- ------------  ---------------      ----- ------------  ---------------
    22      0.478841   3 O  py               26      0.328513   3 O  py        
    69     -0.286600   8 C  s                42      0.279445   5 N  s         
    89      0.207582  10 C  py               44      0.198132   5 N  py        
    40      0.192095   5 N  py               23     -0.186407   3 O  pz        
    67      0.180122   8 C  py               71      0.160447   8 C  py        
 
 Vector   38  Occ=2.000000D+00  E=-3.229821D-01
              MO Center=  2.7D-01, -3.1D+00,  1.7D-01, r^2= 2.6D+00
   Bfn.  Coefficient  Atom+Function         Bfn.  Coefficient  Atom+Function  
  ----- ------------  ---------------      ----- ------------  ---------------
    39      0.442388   5 N  px               43      0.401042   5 N  px        
    22      0.313429   3 O  py               23      0.256969   3 O  pz        
    26      0.212585   3 O  py               27      0.204552   3 O  pz        
    45     -0.168176   5 N  pz               41     -0.165411   5 N  pz        
    42      0.134287   5 N  s                89      0.133269  10 C  py        
 
 Vector   39  Occ=2.000000D+00  E=-3.096254D-01
              MO Center= -1.6D+00,  1.0D+00, -2.9D-02, r^2= 2.3D+00
   Bfn.  Coefficient  Atom+Function         Bfn.  Coefficient  Atom+Function  
  ----- ------------  ---------------      ----- ------------  ---------------
    30      0.326361   4 N  px               34      0.322958   4 N  px        
    31      0.310188   4 N  py               32      0.288729   4 N  pz        
    35      0.269886   4 N  py               36      0.221814   4 N  pz        
    78     -0.193554   9 C  s                76      0.140540   9 C  py        
    29     -0.132183   4 N  s                33     -0.131853   4 N  s         
 
 Vector   40  Occ=0.000000D+00  E= 2.777451D-02
              MO Center=  2.4D-01,  9.8D-01,  2.4D-02, r^2= 7.1D+00
   Bfn.  Coefficient  Atom+Function         Bfn.  Coefficient  Atom+Function  
  ----- ------------  ---------------      ----- ------------  ---------------
    60      0.531565   7 C  s               102     -0.391387  16 H  s         
    81     -0.334528   9 C  pz               77     -0.329100   9 C  pz        
   108     -0.261765  19 H  s                18      0.252638   2 O  pz        
    90     -0.250671  10 C  pz               14      0.238494   2 O  pz        
    76      0.238460   9 C  py               92     -0.237874  11 H  s         
 
 Vector   41  Occ=0.000000D+00  E= 3.542677D-02
              MO Center=  2.5D-01, -1.2D+00,  1.2D-01, r^2= 7.1D+00
   Bfn.  Coefficient  Atom+Function         Bfn.  Coefficient  Atom+Function  
  ----- ------------  ---------------      ----- ------------  ---------------
    90      0.383406  10 C  pz               86      0.376083  10 C  pz        
   110     -0.310591  20 H  s                27     -0.296686   3 O  pz        
   108      0.287277  19 H  s                23     -0.267374   3 O  pz        
    81     -0.234675   9 C  pz               43      0.228440   5 N  px        
    84     -0.224831  10 C  px               60      0.218169   7 C  s         
 
 Vector   42  Occ=0.000000D+00  E= 6.910154D-02
              MO Center=  1.4D+00,  1.7D+00, -1.1D+00, r^2= 3.5D+00
   Bfn.  Coefficient  Atom+Function         Bfn.  Coefficient  Atom+Function  
  ----- ------------  ---------------      ----- ------------  ---------------
    92      1.122236  11 H  s                 6     -0.723787   1 O  s         
    51     -0.603609   6 C  s               104      0.585493  17 H  s         
    61     -0.440537   7 C  px                9      0.389166   1 O  pz        
    60     -0.330670   7 C  s               102      0.317150  16 H  s         
    78      0.249298   9 C  s                 5      0.247225   1 O  pz        
 
 Vector   43  Occ=0.000000D+00  E= 1.008655D-01
              MO Center= -5.9D-01, -3.3D+00, -5.1D-01, r^2= 6.4D+00
   Bfn.  Coefficient  Atom+Function         Bfn.  Coefficient  Atom+Function  
  ----- ------------  ---------------      ----- ------------  ---------------
    42      1.281153   5 N  s               100     -1.080592  15 H  s         
    69      0.921126   8 C  s                98     -0.826624  14 H  s         
   108     -0.574434  19 H  s                33      0.371228   4 N  s         
   110     -0.350681  20 H  s                44     -0.318909   5 N  py        
    94     -0.248607  12 H  s                87     -0.228716  10 C  s         
 
 Vector   44  Occ=0.000000D+00  E= 1.163091D-01
              MO Center= -1.1D+00,  1.0D-01,  5.0D-01, r^2= 7.8D+00
   Bfn.  Coefficient  Atom+Function         Bfn.  Coefficient  Atom+Function  
  ----- ------------  ---------------      ----- ------------  ---------------
    33      1.238782   4 N  s                94     -1.000996  12 H  s         
    96     -0.543762  13 H  s                60      0.517428   7 C  s         
   106     -0.502794  18 H  s               110     -0.492816  20 H  s         
    42     -0.457917   5 N  s                70     -0.421642   8 C  px        
    98      0.416545  14 H  s               100      0.409906  15 H  s         
 
 Vector   45  Occ=0.000000D+00  E= 1.460860D-01
              MO Center= -3.6D-01, -1.6D-01, -8.7D-01, r^2= 6.9D+00
   Bfn.  Coefficient  Atom+Function         Bfn.  Coefficient  Atom+Function  
  ----- ------------  ---------------      ----- ------------  ---------------
   102      1.231772  16 H  s               108      1.099783  19 H  s         
    69     -0.957171   8 C  s                54      0.753023   6 C  pz        
    51     -0.634161   6 C  s                72      0.535386   8 C  pz        
    94     -0.521110  12 H  s               106     -0.480343  18 H  s         
    42      0.393767   5 N  s                98     -0.384921  14 H  s         
 
 Vector   46  Occ=0.000000D+00  E= 1.646079D-01
              MO Center= -8.4D-01, -6.3D-02, -1.1D-01, r^2= 9.0D+00
   Bfn.  Coefficient  Atom+Function         Bfn.  Coefficient  Atom+Function  
  ----- ------------  ---------------      ----- ------------  ---------------
    33      0.876217   4 N  s                60     -0.865478   7 C  s         
    96     -0.826666  13 H  s               106      0.805861  18 H  s         
   102     -0.771192  16 H  s               110      0.746722  20 H  s         
    69     -0.653297   8 C  s                98     -0.633828  14 H  s         
    52      0.587044   6 C  px              108      0.563572  19 H  s         
 
 Vector   47  Occ=0.000000D+00  E= 1.741646D-01
              MO Center= -3.9D-01, -2.2D+00, -1.1D-04, r^2= 1.1D+01
   Bfn.  Coefficient  Atom+Function         Bfn.  Coefficient  Atom+Function  
  ----- ------------  ---------------      ----- ------------  ---------------
    60      1.123264   7 C  s                98     -1.074680  14 H  s         
   100      1.016394  15 H  s               106     -0.858173  18 H  s         
    45      0.786808   5 N  pz               33     -0.574191   4 N  s         
    96      0.576032  13 H  s                51      0.536984   6 C  s         
    87     -0.530885  10 C  s               104     -0.473387  17 H  s         
 
 Vector   48  Occ=0.000000D+00  E= 1.942389D-01
              MO Center=  2.3D-01, -5.3D-01, -4.0D-01, r^2= 6.7D+00
   Bfn.  Coefficient  Atom+Function         Bfn.  Coefficient  Atom+Function  
  ----- ------------  ---------------      ----- ------------  ---------------
   104      1.553537  17 H  s                60     -1.374262   7 C  s         
   110     -0.975991  20 H  s                69      0.756962   8 C  s         
   102     -0.642683  16 H  s                61     -0.569601   7 C  px        
    51      0.560408   6 C  s                98     -0.468405  14 H  s         
    63      0.448817   7 C  pz               54     -0.396997   6 C  pz        
 
 Vector   49  Occ=0.000000D+00  E= 1.981324D-01
              MO Center= -6.9D-01, -3.1D-01, -7.7D-01, r^2= 8.6D+00
   Bfn.  Coefficient  Atom+Function         Bfn.  Coefficient  Atom+Function  
  ----- ------------  ---------------      ----- ------------  ---------------
    51      1.346733   6 C  s               102     -1.250584  16 H  s         
    69     -0.961337   8 C  s               108      0.859465  19 H  s         
   100     -0.736743  15 H  s                96      0.697329  13 H  s         
    54     -0.640041   6 C  pz               62     -0.623148   7 C  py        
   106     -0.571111  18 H  s                98      0.493017  14 H  s         
 
 Vector   50  Occ=0.000000D+00  E= 2.010526D-01
              MO Center= -7.4D-01,  8.5D-01,  3.2D-01, r^2= 5.8D+00
   Bfn.  Coefficient  Atom+Function         Bfn.  Coefficient  Atom+Function  
  ----- ------------  ---------------      ----- ------------  ---------------
    78     -1.020096   9 C  s                60      0.974171   7 C  s         
   106     -0.915422  18 H  s                96     -0.870063  13 H  s         
    94      0.862906  12 H  s                87     -0.612015  10 C  s         
    53      0.528249   6 C  py               51      0.497735   6 C  s         
    61     -0.438346   7 C  px               35      0.432104   4 N  py        
 
 Vector   51  Occ=0.000000D+00  E= 2.271039D-01
              MO Center= -4.9D-01, -5.0D-01, -3.9D-01, r^2= 5.9D+00
   Bfn.  Coefficient  Atom+Function         Bfn.  Coefficient  Atom+Function  
  ----- ------------  ---------------      ----- ------------  ---------------
   110      1.257097  20 H  s               108     -1.213749  19 H  s         
    78     -1.155696   9 C  s                72     -1.118525   8 C  pz        
   104      0.831365  17 H  s                51      0.746610   6 C  s         
    61     -0.612524   7 C  px               70      0.590336   8 C  px        
    94     -0.568337  12 H  s                90      0.505279  10 C  pz        
 
 Vector   52  Occ=0.000000D+00  E= 2.499746D-01
              MO Center= -7.0D-02, -4.5D-01, -2.5D-02, r^2= 4.5D+00
   Bfn.  Coefficient  Atom+Function         Bfn.  Coefficient  Atom+Function  
  ----- ------------  ---------------      ----- ------------  ---------------
    62      1.336777   7 C  py               71      1.157725   8 C  py        
    63      1.018667   7 C  pz               69      1.021814   8 C  s         
   106     -1.012929  18 H  s                70      0.886570   8 C  px        
    54     -0.710142   6 C  pz               87      0.642167  10 C  s         
    60     -0.628752   7 C  s               102     -0.555771  16 H  s         
 
 Vector   53  Occ=0.000000D+00  E= 2.519485D-01
              MO Center= -6.9D-01,  4.4D-01, -2.7D-01, r^2= 5.7D+00
   Bfn.  Coefficient  Atom+Function         Bfn.  Coefficient  Atom+Function  
  ----- ------------  ---------------      ----- ------------  ---------------
    87     -1.470903  10 C  s                52      1.365290   6 C  px        
    78     -1.183787   9 C  s                69      0.981098   8 C  s         
    51     -0.800840   6 C  s                34      0.772267   4 N  px        
    36     -0.650986   4 N  pz               71     -0.633477   8 C  py        
    33      0.577451   4 N  s               110     -0.579475  20 H  s         
 
 Vector   54  Occ=0.000000D+00  E= 2.813694D-01
              MO Center=  8.9D-02,  1.1D+00, -2.1D-01, r^2= 5.3D+00
   Bfn.  Coefficient  Atom+Function         Bfn.  Coefficient  Atom+Function  
  ----- ------------  ---------------      ----- ------------  ---------------
    78      1.927629   9 C  s                51     -0.831179   6 C  s         
    53     -0.828083   6 C  py              106     -0.699462  18 H  s         
     7      0.598613   1 O  px               63      0.589310   7 C  pz        
    72     -0.584266   8 C  pz               71     -0.577262   8 C  py        
   104      0.561972  17 H  s                 6     -0.550816   1 O  s         
 
 Vector   55  Occ=0.000000D+00  E= 2.941310D-01
              MO Center= -3.5D-01, -4.6D-01, -4.3D-02, r^2= 5.8D+00
   Bfn.  Coefficient  Atom+Function         Bfn.  Coefficient  Atom+Function  
  ----- ------------  ---------------      ----- ------------  ---------------
    60      2.004588   7 C  s                51     -1.633507   6 C  s         
    53      1.338956   6 C  py               69     -1.331762   8 C  s         
    61     -1.189093   7 C  px               54     -0.888864   6 C  pz        
    33      0.774612   4 N  s                88     -0.748012  10 C  px        
    44     -0.665454   5 N  py               87      0.631226  10 C  s         
 
 Vector   56  Occ=0.000000D+00  E= 3.014989D-01
              MO Center= -2.1D-01, -7.3D-01,  2.2D-03, r^2= 7.4D+00
   Bfn.  Coefficient  Atom+Function         Bfn.  Coefficient  Atom+Function  
  ----- ------------  ---------------      ----- ------------  ---------------
    87      2.519902  10 C  s                69     -1.059559   8 C  s         
    62     -1.009876   7 C  py               78     -0.891277   9 C  s         
    44     -0.874807   5 N  py               52      0.813634   6 C  px        
    70     -0.791416   8 C  px               71      0.789043   8 C  py        
    42     -0.684997   5 N  s                53     -0.663270   6 C  py        
 
 Vector   57  Occ=0.000000D+00  E= 3.670164D-01
              MO Center=  1.1D-01, -1.3D+00, -3.5D-02, r^2= 7.9D+00
   Bfn.  Coefficient  Atom+Function         Bfn.  Coefficient  Atom+Function  
  ----- ------------  ---------------      ----- ------------  ---------------
    89      1.581360  10 C  py               69     -1.263920   8 C  s         
    24      1.209375   3 O  s                88     -1.173321  10 C  px        
    51     -1.113971   6 C  s                87     -0.969119  10 C  s         
    71      0.946924   8 C  py               80     -0.903608   9 C  py        
    42      0.764513   5 N  s                79     -0.752022   9 C  px        
 
 Vector   58  Occ=0.000000D+00  E= 4.173332D-01
              MO Center= -2.8D-02, -1.4D+00, -5.1D-03, r^2= 5.6D+00
   Bfn.  Coefficient  Atom+Function         Bfn.  Coefficient  Atom+Function  
  ----- ------------  ---------------      ----- ------------  ---------------
    89      2.131120  10 C  py               60      2.109416   7 C  s         
    69     -1.759631   8 C  s                70     -1.602989   8 C  px        
    88      1.513144  10 C  px               24     -1.472826   3 O  s         
    42      1.449064   5 N  s                44      1.107654   5 N  py        
    61     -1.024842   7 C  px               72     -0.968414   8 C  pz        
 
 Vector   59  Occ=0.000000D+00  E= 4.301134D-01
              MO Center= -2.0D-02,  1.6D+00,  2.6D-02, r^2= 6.1D+00
   Bfn.  Coefficient  Atom+Function         Bfn.  Coefficient  Atom+Function  
  ----- ------------  ---------------      ----- ------------  ---------------
    15      2.038336   2 O  s                52     -1.953045   6 C  px        
    80     -1.888073   9 C  py               81     -1.640811   9 C  pz        
    60      1.242271   7 C  s                79      1.080918   9 C  px        
    33     -1.043284   4 N  s                71     -0.952716   8 C  py        
    51     -0.945600   6 C  s                88      0.949482  10 C  px        
 
 Vector   60  Occ=0.000000D+00  E= 4.485370D-01
              MO Center= -6.4D-02,  8.0D-01,  5.5D-03, r^2= 6.6D+00
   Bfn.  Coefficient  Atom+Function         Bfn.  Coefficient  Atom+Function  
  ----- ------------  ---------------      ----- ------------  ---------------
    51      2.692517   6 C  s                79      1.986047   9 C  px        
    78     -1.496744   9 C  s                69     -1.391636   8 C  s         
    54      1.298794   6 C  pz               89      1.085156  10 C  py        
    53      1.041241   6 C  py                6     -0.860985   1 O  s         
    88     -0.862178  10 C  px               71      0.838624   8 C  py        
 
 Vector   61  Occ=0.000000D+00  E= 5.585144D-01
              MO Center=  8.9D-03, -2.3D-02, -1.7D-01, r^2= 5.2D+00
   Bfn.  Coefficient  Atom+Function         Bfn.  Coefficient  Atom+Function  
  ----- ------------  ---------------      ----- ------------  ---------------
    70      0.974096   8 C  px               78     -0.818926   9 C  s         
    60     -0.768321   7 C  s                61     -0.736216   7 C  px        
    52      0.644735   6 C  px               71      0.550231   8 C  py        
    79     -0.531337   9 C  px               88     -0.496521  10 C  px        
    74      0.492230   9 C  s                63     -0.459085   7 C  pz        
 
 Vector   62  Occ=0.000000D+00  E= 5.944772D-01
              MO Center=  1.1D-01,  2.9D-01, -3.6D-01, r^2= 7.4D+00
   Bfn.  Coefficient  Atom+Function         Bfn.  Coefficient  Atom+Function  
  ----- ------------  ---------------      ----- ------------  ---------------
    80      0.720256   9 C  py               81     -0.629959   9 C  pz        
    88     -0.601579  10 C  px               71      0.567813   8 C  py        
    77      0.535675   9 C  pz               86     -0.530653  10 C  pz        
    79      0.457663   9 C  px               51      0.444883   6 C  s         
    53      0.444106   6 C  py               72      0.374101   8 C  pz        
 
 Vector   63  Occ=0.000000D+00  E= 6.001433D-01
              MO Center=  1.7D-02, -4.4D-01, -1.6D-01, r^2= 7.4D+00
   Bfn.  Coefficient  Atom+Function         Bfn.  Coefficient  Atom+Function  
  ----- ------------  ---------------      ----- ------------  ---------------
    90      0.823400  10 C  pz               81      0.658580   9 C  pz        
    86     -0.609037  10 C  pz               53     -0.507672   6 C  py        
    52      0.461752   6 C  px               79     -0.463022   9 C  px        
    77     -0.414047   9 C  pz               80     -0.412698   9 C  py        
    84      0.374057  10 C  px                6      0.364553   1 O  s         
 
 Vector   64  Occ=0.000000D+00  E= 6.204289D-01
              MO Center= -2.9D-01,  1.4D-01, -4.1D-01, r^2= 5.6D+00
   Bfn.  Coefficient  Atom+Function         Bfn.  Coefficient  Atom+Function  
  ----- ------------  ---------------      ----- ------------  ---------------
    52      0.965908   6 C  px               48     -0.647537   6 C  px        
    71     -0.582516   8 C  py               80      0.521471   9 C  py        
    89     -0.447727  10 C  py               67      0.444823   8 C  py        
    78      0.403942   9 C  s                85      0.380078  10 C  py        
    33      0.369933   4 N  s                70      0.351198   8 C  px        
 
 Vector   65  Occ=0.000000D+00  E= 6.402647D-01
              MO Center= -3.4D-01, -2.7D-01, -2.4D-01, r^2= 4.3D+00
   Bfn.  Coefficient  Atom+Function         Bfn.  Coefficient  Atom+Function  
  ----- ------------  ---------------      ----- ------------  ---------------
    61      0.788730   7 C  px               51      0.762703   6 C  s         
    80      0.537981   9 C  py               72     -0.518325   8 C  pz        
    60     -0.508242   7 C  s                53     -0.504986   6 C  py        
    90      0.457667  10 C  pz               67     -0.426216   8 C  py        
    57     -0.407159   7 C  px               49      0.399186   6 C  py        
 
 Vector   66  Occ=0.000000D+00  E= 6.572870D-01
              MO Center=  2.0D-02,  5.0D-01,  1.1D-01, r^2= 6.6D+00
   Bfn.  Coefficient  Atom+Function         Bfn.  Coefficient  Atom+Function  
  ----- ------------  ---------------      ----- ------------  ---------------
    79      1.539895   9 C  px               53      0.706895   6 C  py        
    51      0.695962   6 C  s                71      0.685096   8 C  py        
    80      0.670275   9 C  py                6     -0.618142   1 O  s         
    67     -0.565416   8 C  py               74     -0.450993   9 C  s         
    77     -0.390037   9 C  pz               75     -0.384037   9 C  px        
 
 Vector   67  Occ=0.000000D+00  E= 6.864574D-01
              MO Center= -2.7D-01, -1.5D-01, -1.9D-01, r^2= 6.9D+00
   Bfn.  Coefficient  Atom+Function         Bfn.  Coefficient  Atom+Function  
  ----- ------------  ---------------      ----- ------------  ---------------
    89     -1.387305  10 C  py               70      1.361575   8 C  px        
    51      1.165948   6 C  s                79      1.171052   9 C  px        
    52     -1.117344   6 C  px               33     -0.969581   4 N  s         
    42     -0.808041   5 N  s                60     -0.779042   7 C  s         
    88     -0.651382  10 C  px               69      0.621385   8 C  s         
 
 Vector   68  Occ=0.000000D+00  E= 7.043009D-01
              MO Center=  2.6D-01, -1.8D+00, -1.0D-01, r^2= 6.7D+00
   Bfn.  Coefficient  Atom+Function         Bfn.  Coefficient  Atom+Function  
  ----- ------------  ---------------      ----- ------------  ---------------
    89      2.038517  10 C  py               69     -1.371285   8 C  s         
    53      1.092380   6 C  py               60      0.996852   7 C  s         
    42      0.937669   5 N  s                87     -0.827147  10 C  s         
    83      0.634295  10 C  s                63     -0.610230   7 C  pz        
    61     -0.568029   7 C  px               44      0.564237   5 N  py        
 
 Vector   69  Occ=0.000000D+00  E= 7.224349D-01
              MO Center= -1.8D-01,  4.6D-01,  3.9D-02, r^2= 6.2D+00
   Bfn.  Coefficient  Atom+Function         Bfn.  Coefficient  Atom+Function  
  ----- ------------  ---------------      ----- ------------  ---------------
    51      1.261923   6 C  s                62     -1.234285   7 C  py        
    79      0.920575   9 C  px               69     -0.906852   8 C  s         
    78     -0.760211   9 C  s                70     -0.705087   8 C  px        
    52      0.673121   6 C  px               89      0.612012  10 C  py        
    58      0.581147   7 C  py               74      0.540067   9 C  s         
 
 Vector   70  Occ=0.000000D+00  E= 7.281384D-01
              MO Center=  1.1D-01,  1.9D-01, -1.3D-01, r^2= 6.8D+00
   Bfn.  Coefficient  Atom+Function         Bfn.  Coefficient  Atom+Function  
  ----- ------------  ---------------      ----- ------------  ---------------
    51      1.086931   6 C  s                54      1.025656   6 C  pz        
    80      0.990308   9 C  py               62     -0.655550   7 C  py        
    70     -0.588770   8 C  px               76     -0.536503   9 C  py        
    79      0.531318   9 C  px               60     -0.488033   7 C  s         
    53     -0.459027   6 C  py               84      0.414706  10 C  px        
 
 Vector   71  Occ=0.000000D+00  E= 7.396063D-01
              MO Center=  1.4D-01, -7.8D-01,  1.5D-01, r^2= 6.5D+00
   Bfn.  Coefficient  Atom+Function         Bfn.  Coefficient  Atom+Function  
  ----- ------------  ---------------      ----- ------------  ---------------
    88      1.106274  10 C  px               90      0.841156  10 C  pz        
    72     -0.806481   8 C  pz               60      0.694012   7 C  s         
    84     -0.693543  10 C  px               89      0.678420  10 C  py        
    71     -0.670057   8 C  py               42      0.604638   5 N  s         
    52      0.597391   6 C  px               61     -0.564103   7 C  px        
 
 Vector   72  Occ=0.000000D+00  E= 7.526898D-01
              MO Center= -3.1D-01, -1.4D+00, -1.1D-02, r^2= 1.1D+01
   Bfn.  Coefficient  Atom+Function         Bfn.  Coefficient  Atom+Function  
  ----- ------------  ---------------      ----- ------------  ---------------
    87      1.272005  10 C  s                44     -1.046227   5 N  py        
    79     -0.984618   9 C  px               61      0.823757   7 C  px        
    71      0.656586   8 C  py               88     -0.646684  10 C  px        
    52      0.553205   6 C  px               81      0.542776   9 C  pz        
    99     -0.513230  15 H  s                 6      0.456402   1 O  s         
 
 Vector   73  Occ=0.000000D+00  E= 7.682824D-01
              MO Center= -3.9D-01, -5.6D-01, -1.1D-01, r^2= 8.2D+00
   Bfn.  Coefficient  Atom+Function         Bfn.  Coefficient  Atom+Function  
  ----- ------------  ---------------      ----- ------------  ---------------
    60      1.742469   7 C  s                61     -1.439692   7 C  px        
    53      1.277899   6 C  py               87      1.161218  10 C  s         
    69     -1.064969   8 C  s                70     -1.018192   8 C  px        
    51     -0.964117   6 C  s                63     -0.836643   7 C  pz        
    79      0.770941   9 C  px               54     -0.755935   6 C  pz        
 
 Vector   74  Occ=0.000000D+00  E= 7.865092D-01
              MO Center= -3.3D-01, -1.6D+00, -1.4D-01, r^2= 8.1D+00
   Bfn.  Coefficient  Atom+Function         Bfn.  Coefficient  Atom+Function  
  ----- ------------  ---------------      ----- ------------  ---------------
    54      1.227498   6 C  pz               81     -0.842536   9 C  pz        
    72     -0.782328   8 C  pz               43     -0.760874   5 N  px        
    39      0.585214   5 N  px               70      0.578519   8 C  px        
    79      0.505552   9 C  px               33     -0.457266   4 N  s         
   102      0.448370  16 H  s                15      0.418570   2 O  s         
 
 Vector   75  Occ=0.000000D+00  E= 7.975370D-01
              MO Center= -5.9D-01, -5.6D-01, -1.7D-01, r^2= 6.8D+00
   Bfn.  Coefficient  Atom+Function         Bfn.  Coefficient  Atom+Function  
  ----- ------------  ---------------      ----- ------------  ---------------
    78      1.490103   9 C  s                53     -1.319825   6 C  py        
    51     -0.889243   6 C  s                34      0.737353   4 N  px        
    54     -0.581718   6 C  pz               83     -0.532700  10 C  s         
    49      0.513429   6 C  py               63      0.515087   7 C  pz        
    60     -0.482567   7 C  s                71      0.479004   8 C  py        
 
 Vector   76  Occ=0.000000D+00  E= 8.245388D-01
              MO Center= -1.2D+00,  5.2D-01,  8.6D-02, r^2= 5.1D+00
   Bfn.  Coefficient  Atom+Function         Bfn.  Coefficient  Atom+Function  
  ----- ------------  ---------------      ----- ------------  ---------------
    87      0.841190  10 C  s                78      0.781282   9 C  s         
    34     -0.763474   4 N  px               79     -0.725551   9 C  px        
    89      0.672759  10 C  py               69     -0.501005   8 C  s         
    74     -0.492302   9 C  s                83     -0.482975  10 C  s         
    30      0.445718   4 N  px               93     -0.436222  12 H  s         
 
 Vector   77  Occ=0.000000D+00  E= 8.367751D-01
              MO Center=  3.6D-01,  2.3D-01, -5.4D-01, r^2= 9.9D+00
   Bfn.  Coefficient  Atom+Function         Bfn.  Coefficient  Atom+Function  
  ----- ------------  ---------------      ----- ------------  ---------------
    54      1.540552   6 C  pz               69     -0.956372   8 C  s         
   102      0.894867  16 H  s                63     -0.878312   7 C  pz        
    89      0.845336  10 C  py               51     -0.828222   6 C  s         
    52     -0.783968   6 C  px               81     -0.785314   9 C  pz        
    78      0.699849   9 C  s                 6     -0.629969   1 O  s         
 
 Vector   78  Occ=0.000000D+00  E= 8.659921D-01
              MO Center= -1.2D-01, -1.2D+00, -3.6D-01, r^2= 7.3D+00
   Bfn.  Coefficient  Atom+Function         Bfn.  Coefficient  Atom+Function  
  ----- ------------  ---------------      ----- ------------  ---------------
    72      2.077574   8 C  pz               88      1.348901  10 C  px        
    87     -1.022995  10 C  s               108      0.987422  19 H  s         
    63     -0.906708   7 C  pz               69      0.892353   8 C  s         
   110     -0.838197  20 H  s                89     -0.790538  10 C  py        
    43     -0.730057   5 N  px               68     -0.623215   8 C  pz        
 
 Vector   79  Occ=0.000000D+00  E= 8.783069D-01
              MO Center=  7.6D-01,  1.2D+00, -6.5D-01, r^2= 4.9D+00
   Bfn.  Coefficient  Atom+Function         Bfn.  Coefficient  Atom+Function  
  ----- ------------  ---------------      ----- ------------  ---------------
    54      1.729296   6 C  pz               63     -1.368712   7 C  pz        
   102      1.109512  16 H  s               106      0.796868  18 H  s         
    72      0.777194   8 C  pz               92     -0.716033  11 H  s         
   104     -0.713350  17 H  s                91      0.699726  11 H  s         
    81     -0.672514   9 C  pz               50     -0.541375   6 C  pz        
 
 Vector   80  Occ=0.000000D+00  E= 9.167338D-01
              MO Center= -5.6D-01,  1.2D+00, -2.0D-01, r^2= 5.2D+00
   Bfn.  Coefficient  Atom+Function         Bfn.  Coefficient  Atom+Function  
  ----- ------------  ---------------      ----- ------------  ---------------
    52      1.714151   6 C  px               36     -1.364081   4 N  pz        
    63      1.238496   7 C  pz               60     -1.212869   7 C  s         
   102      0.934920  16 H  s                79     -0.912096   9 C  px        
    78     -0.892412   9 C  s                54      0.811340   6 C  pz        
    80      0.781558   9 C  py              104      0.746403  17 H  s         
 
 Vector   81  Occ=0.000000D+00  E= 9.342973D-01
              MO Center= -6.0D-01, -2.6D+00, -5.3D-01, r^2= 6.3D+00
   Bfn.  Coefficient  Atom+Function         Bfn.  Coefficient  Atom+Function  
  ----- ------------  ---------------      ----- ------------  ---------------
   100      1.267158  15 H  s                45      1.061142   5 N  pz        
    87     -0.796002  10 C  s                43      0.644123   5 N  px        
    41     -0.610782   5 N  pz               44      0.584862   5 N  py        
    63      0.534060   7 C  pz              108      0.523681  19 H  s         
    99     -0.518042  15 H  s                71      0.512125   8 C  py        
 
 Vector   82  Occ=0.000000D+00  E= 9.439603D-01
              MO Center= -8.7D-02, -5.5D-01, -1.2D-01, r^2= 8.3D+00
   Bfn.  Coefficient  Atom+Function         Bfn.  Coefficient  Atom+Function  
  ----- ------------  ---------------      ----- ------------  ---------------
    89      1.378537  10 C  py              104      1.060430  17 H  s         
    52     -1.043417   6 C  px               62      1.022414   7 C  py        
    78      1.007868   9 C  s                61     -0.970039   7 C  px        
[...]
 
 Vector   89  Occ=0.000000D+00  E= 1.022311D+00
              MO Center=  5.0D-01,  4.7D-01, -8.0D-02, r^2= 8.8D+00
   Bfn.  Coefficient  Atom+Function         Bfn.  Coefficient  Atom+Function  
  ----- ------------  ---------------      ----- ------------  ---------------
    87      0.996750  10 C  s               102     -0.830816  16 H  s         
    54     -0.807639   6 C  pz               69     -0.737345   8 C  s         
    63      0.707313   7 C  pz              108      0.703018  19 H  s         
    51      0.643249   6 C  s                27      0.518091   3 O  pz        
    42     -0.519641   5 N  s                60     -0.483912   7 C  s         
 
 Vector   90  Occ=0.000000D+00  E= 1.037125D+00
              MO Center= -2.6D-01,  2.7D-01,  1.8D-01, r^2= 9.8D+00
   Bfn.  Coefficient  Atom+Function         Bfn.  Coefficient  Atom+Function  
  ----- ------------  ---------------      ----- ------------  ---------------
    51      1.317814   6 C  s                78     -1.292212   9 C  s         
    52      0.772003   6 C  px               36     -0.708084   4 N  pz        
    94      0.711289  12 H  s               102     -0.598858  16 H  s         
    18     -0.595247   2 O  pz               87      0.567211  10 C  s         
    25     -0.553398   3 O  px               47     -0.542426   6 C  s         
 
 Vector   91  Occ=0.000000D+00  E= 1.047661D+00
              MO Center= -4.7D-02,  3.8D-01,  2.5D-01, r^2= 9.8D+00
   Bfn.  Coefficient  Atom+Function         Bfn.  Coefficient  Atom+Function  
  ----- ------------  ---------------      ----- ------------  ---------------
   110      0.851047  20 H  s                69     -0.743003   8 C  s         
    87     -0.707525  10 C  s                60     -0.639649   7 C  s         
    96      0.616973  13 H  s                51      0.543484   6 C  s         
    25      0.494994   3 O  px               79      0.497188   9 C  px        
    95     -0.485526  13 H  s               109     -0.462247  20 H  s         
 
 Vector   92  Occ=0.000000D+00  E= 1.062054D+00
              MO Center=  4.3D-01, -1.0D+00,  4.5D-01, r^2= 6.8D+00
   Bfn.  Coefficient  Atom+Function         Bfn.  Coefficient  Atom+Function  
  ----- ------------  ---------------      ----- ------------  ---------------
    87      1.835219  10 C  s               106     -1.101526  18 H  s         
    89      0.920092  10 C  py               78     -0.861462   9 C  s         
    71      0.811299   8 C  py               60      0.775428   7 C  s         
    25      0.607803   3 O  px               63      0.604241   7 C  pz        
    27      0.590828   3 O  pz              104     -0.542539  17 H  s         
 
 Vector   93  Occ=0.000000D+00  E= 1.096303D+00
              MO Center=  1.2D-01, -1.0D-01,  1.4D-01, r^2= 8.1D+00
   Bfn.  Coefficient  Atom+Function         Bfn.  Coefficient  Atom+Function  
  ----- ------------  ---------------      ----- ------------  ---------------
    87     -2.794391  10 C  s                78      2.601874   9 C  s         
    89     -1.887944  10 C  py               71     -1.839645   8 C  py        
    53     -1.499039   6 C  py               62     -1.084342   7 C  py        
    60      0.992920   7 C  s                69      0.994894   8 C  s         
    83      0.948891  10 C  s                33      0.817410   4 N  s         
 
 Vector   94  Occ=0.000000D+00  E= 1.107551D+00
              MO Center=  5.3D-01,  4.4D-01, -1.0D-01, r^2= 9.0D+00
   Bfn.  Coefficient  Atom+Function         Bfn.  Coefficient  Atom+Function  
  ----- ------------  ---------------      ----- ------------  ---------------
    87      1.417888  10 C  s                53      1.002995   6 C  py        
   110     -0.936970  20 H  s                71      0.927191   8 C  py        
    52      0.844380   6 C  px               70     -0.721030   8 C  px        
    88     -0.706403  10 C  px                7      0.664766   1 O  px        
    36     -0.600338   4 N  pz               78     -0.576417   9 C  s         
 
 Vector   95  Occ=0.000000D+00  E= 1.135755D+00
              MO Center=  5.0D-01,  2.0D-01, -2.3D-02, r^2= 9.0D+00
   Bfn.  Coefficient  Atom+Function         Bfn.  Coefficient  Atom+Function  
  ----- ------------  ---------------      ----- ------------  ---------------
    60      2.319860   7 C  s                87     -1.297379  10 C  s         
    52     -1.123860   6 C  px               33     -1.031430   4 N  s         
    71     -0.902008   8 C  py              104     -0.869858  17 H  s         
    56     -0.788560   7 C  s                69      0.783973   8 C  s         
    92      0.628050  11 H  s                 7     -0.614853   1 O  px        
 
 Vector   96  Occ=0.000000D+00  E= 1.172765D+00
              MO Center=  2.3D-01,  1.5D+00,  7.1D-02, r^2= 7.5D+00
   Bfn.  Coefficient  Atom+Function         Bfn.  Coefficient  Atom+Function  
  ----- ------------  ---------------      ----- ------------  ---------------
    60      1.689739   7 C  s                54     -1.101045   6 C  pz        
    87     -0.924047  10 C  s                80     -0.918267   9 C  py        
    89     -0.915928  10 C  py               51     -0.797845   6 C  s         
    81      0.778300   9 C  pz               53      0.766995   6 C  py        
     8      0.715103   1 O  py               17      0.632734   2 O  py        
 
 Vector   97  Occ=0.000000D+00  E= 1.185610D+00
              MO Center= -5.1D-01,  2.0D+00,  1.9D-01, r^2= 5.4D+00
   Bfn.  Coefficient  Atom+Function         Bfn.  Coefficient  Atom+Function  
  ----- ------------  ---------------      ----- ------------  ---------------
    51      2.721945   6 C  s                79      1.640817   9 C  px        
    78     -1.499922   9 C  s                54      1.248091   6 C  pz        
    69     -1.240287   8 C  s                62     -1.092779   7 C  py        
    16     -0.928646   2 O  px               96     -0.838066  13 H  s         
    35      0.815531   4 N  py               87      0.805979  10 C  s         
 
 Vector   98  Occ=0.000000D+00  E= 1.231190D+00
              MO Center= -5.2D-01,  1.2D+00,  3.8D-01, r^2= 7.0D+00
   Bfn.  Coefficient  Atom+Function         Bfn.  Coefficient  Atom+Function  
  ----- ------------  ---------------      ----- ------------  ---------------
    35      1.169909   4 N  py               51      1.100857   6 C  s         
   110      0.875041  20 H  s                16      0.848441   2 O  px        
    47     -0.769590   6 C  s                63      0.709965   7 C  pz        
    89     -0.688095  10 C  py               79     -0.682337   9 C  px        
    53     -0.652881   6 C  py               42     -0.630316   5 N  s         
 
 Vector   99  Occ=0.000000D+00  E= 1.261396D+00
              MO Center= -2.1D-02,  3.6D-01,  4.9D-02, r^2= 6.6D+00
   Bfn.  Coefficient  Atom+Function         Bfn.  Coefficient  Atom+Function  
  ----- ------------  ---------------      ----- ------------  ---------------
    78      2.539912   9 C  s                87      2.025892  10 C  s         
    69     -1.896273   8 C  s                51     -1.664148   6 C  s         
    60     -1.564501   7 C  s                63      1.493183   7 C  pz        
    54     -1.348324   6 C  pz               88     -1.296704  10 C  px        
    72     -1.204069   8 C  pz               71      1.051864   8 C  py        
 
 Vector  100  Occ=0.000000D+00  E= 1.275359D+00
              MO Center=  7.8D-01, -1.4D+00,  4.7D-01, r^2= 6.3D+00
   Bfn.  Coefficient  Atom+Function         Bfn.  Coefficient  Atom+Function  
  ----- ------------  ---------------      ----- ------------  ---------------
    51      1.841579   6 C  s                78     -1.846093   9 C  s         
    89      1.543093  10 C  py               42      1.451784   5 N  s         
    26     -1.307862   3 O  py               60     -1.148625   7 C  s         
    71      1.079725   8 C  py               61      0.947805   7 C  px        
    24      0.901784   3 O  s                90     -0.893936  10 C  pz        
 
 Vector  101  Occ=0.000000D+00  E= 1.309177D+00
              MO Center= -1.3D-02, -1.0D+00, -2.9D-01, r^2= 9.4D+00
   Bfn.  Coefficient  Atom+Function         Bfn.  Coefficient  Atom+Function  
  ----- ------------  ---------------      ----- ------------  ---------------
    42      1.254955   5 N  s                45     -1.177764   5 N  pz        
    54      1.086636   6 C  pz               33     -1.063146   4 N  s         
    62     -0.887526   7 C  py               78      0.845668   9 C  s         
    44      0.744534   5 N  py               69     -0.710479   8 C  s         
    60     -0.677615   7 C  s                87     -0.639463  10 C  s         
 
 Vector  102  Occ=0.000000D+00  E= 1.398663D+00
              MO Center=  4.8D-01,  1.5D-01, -1.8D-01, r^2= 9.7D+00
   Bfn.  Coefficient  Atom+Function         Bfn.  Coefficient  Atom+Function  
  ----- ------------  ---------------      ----- ------------  ---------------
    63      1.470206   7 C  pz               90      1.284775  10 C  pz        
    45     -1.192091   5 N  pz               54     -1.197226   6 C  pz        
    70      1.101145   8 C  px                9      1.058920   1 O  pz        
    72     -1.062971   8 C  pz               87     -0.999367  10 C  s         
    78      0.978038   9 C  s                79     -0.963458   9 C  px        
 
 Vector  103  Occ=0.000000D+00  E= 1.440654D+00
              MO Center= -1.9D-01, -5.6D-03,  3.0D-02, r^2= 8.1D+00
   Bfn.  Coefficient  Atom+Function         Bfn.  Coefficient  Atom+Function  
  ----- ------------  ---------------      ----- ------------  ---------------
    60      2.205849   7 C  s                42      2.077862   5 N  s         
    80      1.733463   9 C  py               53      1.554725   6 C  py        
    62      1.479066   7 C  py               89      1.250071  10 C  py        
    69      1.242839   8 C  s                51     -1.147608   6 C  s         
    15     -0.888867   2 O  s                56     -0.886011   7 C  s         
 
 Vector  104  Occ=0.000000D+00  E= 1.503083D+00
              MO Center=  4.5D-01,  1.6D-01,  6.1D-02, r^2= 9.2D+00
   Bfn.  Coefficient  Atom+Function         Bfn.  Coefficient  Atom+Function  
  ----- ------------  ---------------      ----- ------------  ---------------
    42      2.400359   5 N  s                78      2.267249   9 C  s         
    80     -2.131514   9 C  py               51     -2.003196   6 C  s         
    89      1.914708  10 C  py               60     -1.683316   7 C  s         
    63     -1.301174   7 C  pz               33     -1.277722   4 N  s         
    53     -1.233189   6 C  py               79     -1.237090   9 C  px        
 
 Vector  105  Occ=0.000000D+00  E= 1.527973D+00
              MO Center= -1.7D-01, -1.4D+00, -1.6D-01, r^2= 7.2D+00
   Bfn.  Coefficient  Atom+Function         Bfn.  Coefficient  Atom+Function  
  ----- ------------  ---------------      ----- ------------  ---------------
    42      4.214970   5 N  s                89      3.509605  10 C  py        
    69     -2.875850   8 C  s                38     -1.347624   5 N  s         
    44      1.268040   5 N  py               78     -1.245233   9 C  s         
    54     -1.163582   6 C  pz               51      1.133678   6 C  s         
    62      1.033092   7 C  py               87     -1.020635  10 C  s         
 
 Vector  106  Occ=0.000000D+00  E= 1.748751D+00
              MO Center=  9.9D-02,  3.0D-01, -1.0D-01, r^2= 7.4D+00
   Bfn.  Coefficient  Atom+Function         Bfn.  Coefficient  Atom+Function  
  ----- ------------  ---------------      ----- ------------  ---------------
    69      7.193999   8 C  s                51     -4.070935   6 C  s         
    87     -3.119633  10 C  s                60     -2.730830   7 C  s         
    15      1.972811   2 O  s                62      1.963651   7 C  py        
    33      1.793756   4 N  s                70      1.721673   8 C  px        
    89     -1.646895  10 C  py                6      1.599863   1 O  s         
 
 Vector  107  Occ=0.000000D+00  E= 1.810976D+00
              MO Center= -4.4D-01,  1.7D+00,  3.2D-02, r^2= 4.2D+00
   Bfn.  Coefficient  Atom+Function         Bfn.  Coefficient  Atom+Function  
  ----- ------------  ---------------      ----- ------------  ---------------
    51      4.978102   6 C  s                33     -3.821775   4 N  s         
    78     -3.370704   9 C  s                 6      2.288371   1 O  s         
    34     -1.553967   4 N  px               29      1.386143   4 N  s         
    15      1.322978   2 O  s                 2     -1.013400   1 O  s         
    47     -0.987478   6 C  s                69     -0.955035   8 C  s         
 
 Vector  108  Occ=0.000000D+00  E= 1.897162D+00
              MO Center=  5.4D-01, -1.6D+00,  2.8D-01, r^2= 5.3D+00
   Bfn.  Coefficient  Atom+Function         Bfn.  Coefficient  Atom+Function  
  ----- ------------  ---------------      ----- ------------  ---------------
    51      5.389024   6 C  s                24     -4.034399   3 O  s         
    69      2.901384   8 C  s                88      2.587668  10 C  px        
    60     -2.113325   7 C  s                33     -1.749017   4 N  s         
    90      1.734717  10 C  pz               20      1.678456   3 O  s         
    47     -1.306754   6 C  s                25      1.282059   3 O  px        
 
 Vector  109  Occ=0.000000D+00  E= 1.960112D+00
              MO Center=  3.0D-01,  2.3D-01,  3.3D-02, r^2= 6.1D+00
   Bfn.  Coefficient  Atom+Function         Bfn.  Coefficient  Atom+Function  
  ----- ------------  ---------------      ----- ------------  ---------------
    51      8.125569   6 C  s                60     -7.089703   7 C  s         
    69      5.398340   8 C  s                87     -2.635394  10 C  s         
    79      2.429536   9 C  px               24      2.326408   3 O  s         
    33     -2.232339   4 N  s                78     -2.135078   9 C  s         
     6     -2.119436   1 O  s                54      2.059946   6 C  pz        
 
 Vector  110  Occ=0.000000D+00  E= 2.013899D+00
              MO Center=  2.9D-01,  2.2D+00,  6.7D-02, r^2= 4.3D+00
   Bfn.  Coefficient  Atom+Function         Bfn.  Coefficient  Atom+Function  
  ----- ------------  ---------------      ----- ------------  ---------------
    15      4.372596   2 O  s                69     -3.944970   8 C  s         
    60      2.852697   7 C  s                 6     -2.776118   1 O  s         
    81     -2.543024   9 C  pz               80     -2.283518   9 C  py        
    79      2.124348   9 C  px               51     -1.990516   6 C  s         
    52     -1.898179   6 C  px               11     -1.581568   2 O  s         
 

 center of mass
 --------------
 x =   0.05277192 y =   0.06502403 z =   0.03799432

 moments of inertia (a.u.)
 ------------------
        3026.232863800014          -0.000000000000          -0.000000000000
          -0.000000000000         626.006745342929           0.000000000001
          -0.000000000000           0.000000000001        3392.915245712114
 
     Multipole analysis of the density
     ---------------------------------
 
     L   x y z        total         alpha         beta         nuclear
     -   - - -        -----         -----         ----         -------
     0   0 0 0     -0.000000    -39.000000    -39.000000     78.000000
 
     1   1 0 0     -0.799763     -0.399881     -0.399881      0.000000
     1   0 1 0     -1.438056     -0.719028     -0.719028     -0.000000
     1   0 0 1     -1.551867     -0.775934     -0.775934     -0.000000
 
     2   2 0 0    -48.891470   -163.567795   -163.567795    278.244119
     2   1 1 0      4.740267     -1.097684     -1.097684      6.935636
     2   1 0 1     -4.745769     -0.381251     -0.381251     -3.983267
     2   0 2 0    -47.468977   -793.802742   -793.802742   1540.136507
     2   0 1 1     -2.924831     -1.688598     -1.688598      0.452364
     2   0 0 2    -40.112118    -61.869869    -61.869869     83.627620
 

 Task  times  cpu:       82.2s     wall:       19.6s
 
 
                                NWChem Input Module
                                -------------------
 
 
 Summary of allocated global arrays
-----------------------------------
  No active global arrays



                         GA Statistics for process    0
                         ------------------------------

       create   destroy   get      put      acc     scatter   gather  read&inc
calls:  174      174     6.62e+04 2387     5.27e+04    0        0      871     
number of processes/call 5.07e+00 3.31e+01 4.13e+00 0.00e+00 0.00e+00
bytes total:             4.21e+07 6.31e+06 2.36e+07 0.00e+00 0.00e+00 6.97e+03
bytes remote:            2.61e+07 1.95e+06 1.60e+07 0.00e+00 0.00e+00 0.00e+00
Max memory consumed for GA by this process: 1218808 bytes
 
MA_summarize_allocated_blocks: starting scan ...
heap block 'gridpts', handle 115, address 0x13637a28:
	type of elements:		double precision
	number of elements:		6291456
	address of client space:	0x13637a80
	index for client space:		19854685
	total number of bytes:		50331744
MA_summarize_allocated_blocks: scan completed: 1 heap block, 0 stack blocks
MA usage statistics:

	allocation statistics:
					      heap	     stack
					      ----	     -----
	current number of blocks	         1	         0
	maximum number of blocks	        21	        53
	current total bytes		  50331744	         0
	maximum total bytes		  54298392	  22518856
	maximum total K-bytes		     54299	     22519
	maximum total M-bytes		        55	        23
 
 
                                     CITATION
                                     --------
                Please cite the following reference when publishing
                           results obtained with NWChem:
 
                 M. Valiev, E.J. Bylaska, N. Govind, K. Kowalski,
              T.P. Straatsma, H.J.J. van Dam, D. Wang, J. Nieplocha,
                        E. Apra, T.L. Windus, W.A. de Jong
                 "NWChem: a comprehensive and scalable open-source
                  solution for large scale molecular simulations"
                      Comput. Phys. Commun. 181, 1477 (2010)
                           doi:10.1016/j.cpc.2010.04.018
 
                                      AUTHORS
                                      -------
          E. Apra, E. J. Bylaska, W. A. de Jong, N. Govind, K. Kowalski,
       T. P. Straatsma, M. Valiev, H. J. J. van Dam, D. Wang, T. L. Windus,
        J. Hammond, J. Autschbach, K. Bhaskaran-Nair, J. Brabec, K. Lopata,
    S. A. Fischer, S. Krishnamoorthy, M. Jacquelin, W. Ma, M. Klemm, O. Villa,
      Y. Chen, V. Anisimov, F. Aquino, S. Hirata, M. T. Hackler, V. Konjkov,
            D. Mejia-Rodriguez, T. Risthaus, M. Malagoli, A. Marenich,
   A. Otero-de-la-Roza, J. Mullin, P. Nichols, R. Peverati, J. Pittner, Y. Zhao,
        P.-D. Fan, A. Fonari, M. J. Williamson, R. J. Harrison, J. R. Rehr,
      M. Dupuis, D. Silverstein, D. M. A. Smith, J. Nieplocha, V. Tipparaju,
    M. Krishnan, B. E. Van Kuiken, A. Vazquez-Mayagoitia, L. Jensen, M. Swart,
      Q. Wu, T. Van Voorhis, A. A. Auer, M. Nooijen, L. D. Crosby, E. Brown,
      G. Cisneros, G. I. Fann, H. Fruchtl, J. Garza, K. Hirao, R. A. Kendall,
      J. A. Nichols, K. Tsemekhman, K. Wolinski, J. Anchell, D. E. Bernholdt,
      P. Borowski, T. Clark, D. Clerc, H. Dachsel, M. J. O. Deegan, K. Dyall,
    D. Elwood, E. Glendening, M. Gutowski, A. C. Hess, J. Jaffe, B. G. Johnson,
     J. Ju, R. Kobayashi, R. Kutteh, Z. Lin, R. Littlefield, X. Long, B. Meng,
      T. Nakajima, S. Niu, L. Pollack, M. Rosing, K. Glaesemann, G. Sandrone,
      M. Stave, H. Taylor, G. Thomas, J. H. van Lenthe, A. T. Wong, Z. Zhang.

 Total times  cpu:       82.9s     wall:       19.8s
