 argument  1 = Frag-00000002.nw
  NWChem w/ OpenMP: maximum threads =    7
                                         
                                         
 
 
              Northwest Computational Chemistry Package (NWChem) 6.8
              ------------------------------------------------------
 
 
                    Environmental Molecular Sciences Laboratory
                       Pacific Northwest National Laboratory
                                Richland, WA 99352
 
                              Copyright (c) 1994-2018
                       Pacific Northwest National Laboratory
                            Battelle Memorial Institute
 
             NWChem is an open-source computational chemistry package
                        distributed under the terms of the
                      Educational Community License (ECL) 2.0
             A copy of the license is included with this distribution
                              in the LICENSE.TXT file
 
                                  ACKNOWLEDGMENT
                                  --------------

            This software and its documentation were developed at the
            EMSL at Pacific Northwest National Laboratory, a multiprogram
            national laboratory, operated for the U.S. Department of Energy
            by Battelle under Contract Number DE-AC05-76RL01830. Support
            for this work was provided by the Department of Energy Office
            of Biological and Environmental Research, Office of Basic
            Energy Sciences, and the Office of Advanced Scientific Computing.


           Job information
           ---------------

    hostname        = i10r3n18
    program         = /public/software/apps/nwchem-DCU/6.8.1/hpcx-2.4.1-intel2017/bin/LINUX64/nwchem
    date            = Sat Mar 19 20:03:27 2022

    compiled        = Wed_Feb_19_20:38:21_2020
    source          = /public/software/apps/nwchem-DCU/6.8.1/hpcx-2.4.1-intel2017
    nwchem branch   = Development
    nwchem revision = nwchem_on_git-947-g0b42727
    ga revision     = 5.7.0
    use scalapack   = F
    input           = Frag-00000002.nw
    prefix          = LoadBalanceApplication.
    data base       = ./LoadBalanceApplication.db
    status          = startup
    nproc           =        4
    time left       =     -1s



           Memory information
           ------------------

    heap     =   13107200 doubles =    100.0 Mbytes
    stack    =   13107197 doubles =    100.0 Mbytes
    global   =   26214400 doubles =    200.0 Mbytes (distinct from heap & stack)
    total    =   52428797 doubles =    400.0 Mbytes
    verify   = yes
    hardfail = no 


           Directory information
           ---------------------
 
  0 permanent = .
  0 scratch   = .
 
 
 
 
                                NWChem Input Module
                                -------------------
 
 
                                   Frag-00000002
                                   -------------

 Scaling coordinates for geometry "geometry" by  1.889725989
 (inverse scale =  0.529177249)

 C2V symmetry detected

          ------
          auto-z
          ------
  no constraints, skipping   0.000000000000000E+000
  no constraints, skipping   0.000000000000000E+000
 
 
                             Geometry "geometry" -> ""
                             -------------------------
 
 Output coordinates in angstroms (scale by  1.889725989 to convert to a.u.)
 
  No.       Tag          Charge          X              Y              Z
 ---- ---------------- ---------- -------------- -------------- --------------
    1 O                    8.0000     0.00000000     0.00000000    -0.11081412
    2 H                    1.0000     0.78344767     0.00000000     0.44325649
    3 H                    1.0000    -0.78344767     0.00000000     0.44325649
 
      Atomic Mass 
      ----------- 
 
      O                 15.994910
      H                  1.007825
 

 Effective nuclear repulsion energy (a.u.)       9.1612489536

            Nuclear Dipole moment (a.u.) 
            ----------------------------
        X                 Y               Z
 ---------------- ---------------- ----------------
     0.0000000000     0.0000000000     0.0000000000
 
      Symmetry information
      --------------------
 
 Group name             C2v       
 Group number             16
 Group order               4
 No. of unique centers     2
 
      Symmetry unique atoms
 
     1    2
 


                                Z-matrix (autoz)
                                -------- 

 Units are Angstrom for bonds and degrees for angles
 
      Type          Name      I     J     K     L     M      Value
      ----------- --------  ----- ----- ----- ----- ----- ----------
    1 Stretch                  1     2                       0.95958
    2 Stretch                  1     3                       0.95958
    3 Bend                     2     1     3               109.46250
 
 
            XYZ format geometry
            -------------------
     3
 geometry
 O                     0.00000000     0.00000000    -0.11081412
 H                     0.78344767     0.00000000     0.44325649
 H                    -0.78344767     0.00000000     0.44325649
 
 ==============================================================================
                                internuclear distances
 ------------------------------------------------------------------------------
       center one      |      center two      | atomic units |  angstroms
 ------------------------------------------------------------------------------
    2 H                |   1 O                |     1.81333  |     0.95958
    3 H                |   1 O                |     1.81333  |     0.95958
 ------------------------------------------------------------------------------
                         number of included internuclear distances:          2
 ==============================================================================



 ==============================================================================
                                 internuclear angles
 ------------------------------------------------------------------------------
        center 1       |       center 2       |       center 3       |  degrees
 ------------------------------------------------------------------------------
    2 H                |   1 O                |   3 H                |   109.46
 ------------------------------------------------------------------------------
                            number of included internuclear angles:          1
 ==============================================================================





 Summary of "ao basis" -> "" (cartesian)
 ------------------------------------------------------------------------------
       Tag                 Description            Shells   Functions and Types
 ---------------- ------------------------------  ------  ---------------------
 *                           6-31g                    on all atoms 


 
                                 NWChem DFT Module
                                 -----------------
 
 
                                   Frag-00000002
 
 
                      Basis "ao basis" -> "ao basis" (cartesian)
                      -----
  O (Oxygen)
  ----------
            Exponent  Coefficients 
       -------------- ---------------------------------------------------------
  1 S  5.48467170E+03  0.001831
  1 S  8.25234950E+02  0.013950
  1 S  1.88046960E+02  0.068445
  1 S  5.29645000E+01  0.232714
  1 S  1.68975700E+01  0.470193
  1 S  5.79963530E+00  0.358521
 
  2 S  1.55396160E+01 -0.110778
  2 S  3.59993360E+00 -0.148026
  2 S  1.01376180E+00  1.130767
 
  3 P  1.55396160E+01  0.070874
  3 P  3.59993360E+00  0.339753
  3 P  1.01376180E+00  0.727159
 
  4 S  2.70005800E-01  1.000000
 
  5 P  2.70005800E-01  1.000000
 
  H (Hydrogen)
  ------------
            Exponent  Coefficients 
       -------------- ---------------------------------------------------------
  1 S  1.87311370E+01  0.033495
  1 S  2.82539370E+00  0.234727
  1 S  6.40121700E-01  0.813757
 
  2 S  1.61277800E-01  1.000000
 


 Summary of "ao basis" -> "ao basis" (cartesian)
 ------------------------------------------------------------------------------
       Tag                 Description            Shells   Functions and Types
 ---------------- ------------------------------  ------  ---------------------
 O                           6-31g                   5        9   3s2p
 H                           6-31g                   2        2   2s




 Summary of "ao basis" -> "ao basis" (cartesian)
 ------------------------------------------------------------------------------
       Tag                 Description            Shells   Functions and Types
 ---------------- ------------------------------  ------  ---------------------
 O                           6-31g                   5        9   3s2p
 H                           6-31g                   2        2   2s


      Symmetry analysis of basis
      --------------------------
 
        a1          7
        a2          0
        b1          4
        b2          2
 
  Caching 1-el integrals 
 
            General Information
            -------------------
          SCF calculation type: DFT
          Wavefunction type:  closed shell.
          No. of atoms     :     3
          No. of electrons :    10
           Alpha electrons :     5
            Beta electrons :     5
          Charge           :     0
          Spin multiplicity:     1
          Use of symmetry is: on ; symmetry adaption is: on 
          Maximum number of iterations:  30
          AO basis - number of functions:    13
                     number of shells:     9
          Convergence on energy requested:  1.00D-06
          Convergence on density requested:  1.00D-05
          Convergence on gradient requested:  5.00D-04
 
              XC Information
              --------------
                       M06-2X Method XC Functional
                     Hartree-Fock (Exact) Exchange  0.540          
                        M06-2X Exchange Functional  1.000          
                      M06-2X Correlation Potential  1.000          
 
             Grid Information
             ----------------
          Grid used for XC integration:  medium    
          Radial quadrature: Mura-Knowles        
          Angular quadrature: Lebedev. 
          Tag              B.-S. Rad. Rad. Pts. Rad. Cut. Ang. Pts.
          ---              ---------- --------- --------- ---------
          O                   0.60       49           5.0       434
          H                   0.35       45           6.0       434
          Grid pruning is: on 
          Number of quadrature shells:    94
          Spatial weights used:  Erf1
 
          Convergence Information
          -----------------------
          Convergence aids based upon iterative change in 
          total energy or number of iterations. 
          Levelshifting, if invoked, occurs when the 
          HOMO/LUMO gap drops below (HL_TOL):  1.00D-02
          DIIS, if invoked, will attempt to extrapolate 
          using up to (NFOCK): 10 stored Fock matrices.

                    Damping( 0%)  Levelshifting(0.5)       DIIS
                  --------------- ------------------- ---------------
          dE  on:    start            ASAP                start   
          dE off:    2 iters         30 iters            30 iters 

 
      Screening Tolerance Information
      -------------------------------
          Density screening/tol_rho:  1.00D-10
          AO Gaussian exp screening on grid/accAOfunc:  14
          CD Gaussian exp screening on grid/accCDfunc:  20
          XC Gaussian exp screening on grid/accXCfunc:  20
          Schwarz screening/accCoul:  1.00D-08

 
      Superposition of Atomic Density Guess
      -------------------------------------
 
 Sum of atomic energies:         -75.75081731
 
      Non-variational initial energy
      ------------------------------

 Total energy =     -75.910054
 1-e energy   =    -121.677257
 2-e energy   =      36.605955
 HOMO         =      -0.468308
 LUMO         =       0.114664
 
 
      Symmetry analysis of molecular orbitals - initial
      -------------------------------------------------
 
  Numbering of irreducible representations: 
 
     1 a1          2 a2          3 b1          4 b2      
 
  Orbital symmetries:
 
     1 a1          2 a1          3 b1          4 a1          5 b2      
     6 a1          7 b1          8 b1          9 b2         10 a1      
    11 a1         12 b1         13 a1      
 
   Time after variat. SCF:      0.7
   Time prior to 1st pass:      0.7

 Grid_pts file          = ./LoadBalanceApplication.gridpts.0
 Record size in doubles =  12289        No. of grid_pts per rec  =   3070
 Max. records in memory =      5        Max. recs in file   = 253312716


           Memory utilization after 1st SCF pass: 
           Heap Space remaining (MW):        6.75             6753008
          Stack Space remaining (MW):       13.11            13106972

   convergence    iter        energy       DeltaE   RMS-Dens  Diis-err    time
 ---------------- ----- ----------------- --------- --------- ---------  ------
 d= 0,ls=0.0,diis     1    -76.3137401627 -8.55D+01  4.16D-02  3.19D-01     0.7
 d= 0,ls=0.0,diis     2    -76.3260347094 -1.23D-02  1.81D-02  2.69D-01     0.8
 d= 0,ls=0.0,diis     3    -76.3497229759 -2.37D-02  1.62D-03  1.49D-03     0.8
 d= 0,ls=0.0,diis     4    -76.3498686867 -1.46D-04  1.12D-04  2.53D-06     0.8
 d= 0,ls=0.0,diis     5    -76.3498691576 -4.71D-07  1.17D-05  1.95D-08     0.8
 d= 0,ls=0.0,diis     6    -76.3498691619 -4.38D-09  4.62D-07  4.32D-11     0.9


         Total DFT energy =      -76.349869161945
      One electron energy =     -122.980757475503
           Coulomb energy =       46.788055265543
    Exchange-Corr. energy =       -9.318415905544
 Nuclear repulsion energy =        9.161248953560

 Numeric. integr. density =       10.000002029207

     Total iterative time =      0.2s


 
                  Occupations of the irreducible representations
                  ----------------------------------------------
 
                     irrep           alpha         beta
                     --------     --------     --------
                     a1                3.0          3.0
                     a2                0.0          0.0
                     b1                1.0          1.0
                     b2                1.0          1.0
 
 
                       DFT Final Molecular Orbital Analysis
                       ------------------------------------
 
 Vector    1  Occ=2.000000D+00  E=-1.961986D+01  Symmetry=a1
              MO Center=  1.0D-18, -8.7D-31, -1.1D-01, r^2= 1.5D-02
   Bfn.  Coefficient  Atom+Function         Bfn.  Coefficient  Atom+Function  
  ----- ------------  ---------------      ----- ------------  ---------------
     1      0.995607  1 O  s          
 
 Vector    2  Occ=2.000000D+00  E=-1.129727D+00  Symmetry=a1
              MO Center=  4.7D-17,  1.2D-16,  9.4D-02, r^2= 5.0D-01
   Bfn.  Coefficient  Atom+Function         Bfn.  Coefficient  Atom+Function  
  ----- ------------  ---------------      ----- ------------  ---------------
     2      0.466057  1 O  s                  6      0.461906  1 O  s          
     1     -0.210206  1 O  s                 10      0.145240  2 H  s          
    12      0.145240  3 H  s                  5      0.133041  1 O  pz         
     9      0.063652  1 O  pz         
 
 Vector    3  Occ=2.000000D+00  E=-6.100824D-01  Symmetry=b1
              MO Center=  9.7D-17,  2.5D-32,  1.0D-01, r^2= 8.0D-01
   Bfn.  Coefficient  Atom+Function         Bfn.  Coefficient  Atom+Function  
  ----- ------------  ---------------      ----- ------------  ---------------
     3      0.511313  1 O  px                10      0.266131  2 H  s          
    12     -0.266131  3 H  s                  7      0.244186  1 O  px         
    11      0.134020  2 H  s                 13     -0.134020  3 H  s          
 
 Vector    4  Occ=2.000000D+00  E=-4.287415D-01  Symmetry=a1
              MO Center=  2.3D-17, -3.0D-17, -2.3D-01, r^2= 6.7D-01
   Bfn.  Coefficient  Atom+Function         Bfn.  Coefficient  Atom+Function  
  ----- ------------  ---------------      ----- ------------  ---------------
     5      0.553715  1 O  pz                 9      0.401240  1 O  pz         
     6     -0.333655  1 O  s                  2     -0.185147  1 O  s          
    10      0.135184  2 H  s                 12      0.135184  3 H  s          
    11      0.090771  2 H  s                 13      0.090771  3 H  s          
     1      0.081168  1 O  s          
 
 Vector    5  Occ=2.000000D+00  E=-3.750834D-01  Symmetry=b2
              MO Center=  1.3D-31, -7.0D-17, -1.1D-01, r^2= 6.0D-01
   Bfn.  Coefficient  Atom+Function         Bfn.  Coefficient  Atom+Function  
  ----- ------------  ---------------      ----- ------------  ---------------
     4      0.641666  1 O  py                 8      0.509952  1 O  py         
 
 Vector    6  Occ=0.000000D+00  E= 1.095463D-01  Symmetry=a1
              MO Center=  2.7D-15,  9.4D-18,  5.7D-01, r^2= 2.5D+00
   Bfn.  Coefficient  Atom+Function         Bfn.  Coefficient  Atom+Function  
  ----- ------------  ---------------      ----- ------------  ---------------
     6      1.137110  1 O  s                 11     -0.961612  2 H  s          
    13     -0.961612  3 H  s                  9      0.435826  1 O  pz         
     5      0.259304  1 O  pz                 2      0.141875  1 O  s          
     1     -0.089463  1 O  s                 10     -0.089899  2 H  s          
    12     -0.089899  3 H  s          
 
 Vector    7  Occ=0.000000D+00  E= 2.007742D-01  Symmetry=b1
              MO Center= -2.9D-15, -4.9D-31,  5.5D-01, r^2= 2.6D+00
   Bfn.  Coefficient  Atom+Function         Bfn.  Coefficient  Atom+Function  
  ----- ------------  ---------------      ----- ------------  ---------------
    11      1.316295  2 H  s                 13     -1.316295  3 H  s          
     7     -0.794218  1 O  px                 3     -0.385809  1 O  px         
    10      0.071208  2 H  s                 12     -0.071208  3 H  s          
 
 Vector    8  Occ=0.000000D+00  E= 9.012713D-01  Symmetry=b1
              MO Center=  1.2D-16,  3.1D-33,  1.5D-01, r^2= 1.6D+00
   Bfn.  Coefficient  Atom+Function         Bfn.  Coefficient  Atom+Function  
  ----- ------------  ---------------      ----- ------------  ---------------
    10      0.990764  2 H  s                 12     -0.990764  3 H  s          
     7     -0.622101  1 O  px                11     -0.579694  2 H  s          
    13      0.579694  3 H  s                  3     -0.198216  1 O  px         
 
 Vector    9  Occ=0.000000D+00  E= 9.453695D-01  Symmetry=a1
              MO Center=  4.2D-16,  1.3D-17,  3.9D-01, r^2= 1.3D+00
   Bfn.  Coefficient  Atom+Function         Bfn.  Coefficient  Atom+Function  
  ----- ------------  ---------------      ----- ------------  ---------------
    10      0.896634  2 H  s                 12      0.896634  3 H  s          
    11     -0.588317  2 H  s                 13     -0.588317  3 H  s          
     5     -0.557685  1 O  pz                 2     -0.263647  1 O  s          
     6      0.180989  1 O  s                  9      0.110922  1 O  pz         
     1      0.053673  1 O  s          
 
 Vector   10  Occ=0.000000D+00  E= 9.731638D-01  Symmetry=b2
              MO Center= -2.7D-37,  1.1D-21, -1.1D-01, r^2= 1.1D+00
   Bfn.  Coefficient  Atom+Function         Bfn.  Coefficient  Atom+Function  
  ----- ------------  ---------------      ----- ------------  ---------------
     8     -1.037302  1 O  py                 4      0.961411  1 O  py         
 
 Vector   11  Occ=0.000000D+00  E= 1.014216D+00  Symmetry=a1
              MO Center= -1.2D-16, -7.3D-19, -3.0D-01, r^2= 1.2D+00
   Bfn.  Coefficient  Atom+Function         Bfn.  Coefficient  Atom+Function  
  ----- ------------  ---------------      ----- ------------  ---------------
     9      1.213063  1 O  pz                 5     -0.801115  1 O  pz         
    10     -0.438380  2 H  s                 12     -0.438380  3 H  s          
     2      0.324983  1 O  s                  6      0.079719  1 O  s          
     1     -0.059913  1 O  s          
 
 Vector   12  Occ=0.000000D+00  E= 1.152986D+00  Symmetry=b1
              MO Center=  7.6D-16, -1.0D-32, -1.1D-01, r^2= 1.5D+00
   Bfn.  Coefficient  Atom+Function         Bfn.  Coefficient  Atom+Function  
  ----- ------------  ---------------      ----- ------------  ---------------
     7      1.672573  1 O  px                 3     -1.002961  1 O  px         
    11     -0.911668  2 H  s                 13      0.911668  3 H  s          
 
 Vector   13  Occ=0.000000D+00  E= 1.461175D+00  Symmetry=a1
              MO Center= -6.7D-16, -3.7D-17,  1.9D-01, r^2= 1.2D+00
   Bfn.  Coefficient  Atom+Function         Bfn.  Coefficient  Atom+Function  
  ----- ------------  ---------------      ----- ------------  ---------------
     6      2.749039  1 O  s                  2     -1.692933  1 O  s          
     9      0.755123  1 O  pz                11     -0.637156  2 H  s          
    13     -0.637156  3 H  s                 10     -0.397538  2 H  s          
    12     -0.397538  3 H  s                  5     -0.162734  1 O  pz         
     1      0.059586  1 O  s          
 

 center of mass
 --------------
 x =   0.00000000 y =   0.00000000 z =  -0.09222877

 moments of inertia (a.u.)
 ------------------
           1.962445568939           0.000000000000           0.000000000000
           0.000000000000           6.380517474127           0.000000000000
           0.000000000000           0.000000000000           4.418071905188
 
     Multipole analysis of the density
     ---------------------------------
 
     L   x y z        total         alpha         beta         nuclear
     -   - - -        -----         -----         ----         -------
     0   0 0 0     -0.000000     -5.000000     -5.000000     10.000000
 
     1   1 0 0     -0.000000     -0.000000     -0.000000      0.000000
     1   0 1 0      0.000000      0.000000      0.000000      0.000000
     1   0 0 1      0.971685      0.485843      0.485843      0.000000
 
     2   2 0 0     -2.998096     -3.690932     -3.690932      4.383769
     2   1 1 0      0.000000      0.000000      0.000000      0.000000
     2   1 0 1      0.000000      0.000000      0.000000      0.000000
     2   0 2 0     -5.355329     -2.677665     -2.677665      0.000000
     2   0 1 1      0.000000      0.000000      0.000000      0.000000
     2   0 0 2     -4.662760     -3.208417     -3.208417      1.754074
 

 Task  times  cpu:        1.9s     wall:        0.3s
 
 
                                NWChem Input Module
                                -------------------
 
 
 Summary of allocated global arrays
-----------------------------------
  No active global arrays



                         GA Statistics for process    0
                         ------------------------------

       create   destroy   get      put      acc     scatter   gather  read&inc
calls:  193      193     1038      393      466        0        0      133     
number of processes/call 8.97e+00 8.20e+00 5.03e+00 0.00e+00 0.00e+00
bytes total:             4.42e+05 1.55e+05 1.83e+05 0.00e+00 0.00e+00 1.06e+03
bytes remote:            1.40e+05 2.88e+04 6.83e+04 0.00e+00 0.00e+00 0.00e+00
Max memory consumed for GA by this process: 39368 bytes
 
MA_summarize_allocated_blocks: starting scan ...
heap block 'gridpts', handle 104, address 0x128a5c68:
	type of elements:		double precision
	number of elements:		6291456
	address of client space:	0x128a5cc0
	index for client space:		18076069
	total number of bytes:		50331744
MA_summarize_allocated_blocks: scan completed: 1 heap block, 0 stack blocks
MA usage statistics:

	allocation statistics:
					      heap	     stack
					      ----	     -----
	current number of blocks	         1	         0
	maximum number of blocks	        22	        57
	current total bytes		  50331744	         0
	maximum total bytes		  50833352	  22510472
	maximum total K-bytes		     50834	     22511
	maximum total M-bytes		        51	        23
 
 
                                     CITATION
                                     --------
                Please cite the following reference when publishing
                           results obtained with NWChem:
 
                 M. Valiev, E.J. Bylaska, N. Govind, K. Kowalski,
              T.P. Straatsma, H.J.J. van Dam, D. Wang, J. Nieplocha,
                        E. Apra, T.L. Windus, W.A. de Jong
                 "NWChem: a comprehensive and scalable open-source
                  solution for large scale molecular simulations"
                      Comput. Phys. Commun. 181, 1477 (2010)
                           doi:10.1016/j.cpc.2010.04.018
 
                                      AUTHORS
                                      -------
          E. Apra, E. J. Bylaska, W. A. de Jong, N. Govind, K. Kowalski,
       T. P. Straatsma, M. Valiev, H. J. J. van Dam, D. Wang, T. L. Windus,
        J. Hammond, J. Autschbach, K. Bhaskaran-Nair, J. Brabec, K. Lopata,
    S. A. Fischer, S. Krishnamoorthy, M. Jacquelin, W. Ma, M. Klemm, O. Villa,
      Y. Chen, V. Anisimov, F. Aquino, S. Hirata, M. T. Hackler, V. Konjkov,
            D. Mejia-Rodriguez, T. Risthaus, M. Malagoli, A. Marenich,
   A. Otero-de-la-Roza, J. Mullin, P. Nichols, R. Peverati, J. Pittner, Y. Zhao,
        P.-D. Fan, A. Fonari, M. J. Williamson, R. J. Harrison, J. R. Rehr,
      M. Dupuis, D. Silverstein, D. M. A. Smith, J. Nieplocha, V. Tipparaju,
    M. Krishnan, B. E. Van Kuiken, A. Vazquez-Mayagoitia, L. Jensen, M. Swart,
      Q. Wu, T. Van Voorhis, A. A. Auer, M. Nooijen, L. D. Crosby, E. Brown,
      G. Cisneros, G. I. Fann, H. Fruchtl, J. Garza, K. Hirao, R. A. Kendall,
      J. A. Nichols, K. Tsemekhman, K. Wolinski, J. Anchell, D. E. Bernholdt,
      P. Borowski, T. Clark, D. Clerc, H. Dachsel, M. J. O. Deegan, K. Dyall,
    D. Elwood, E. Glendening, M. Gutowski, A. C. Hess, J. Jaffe, B. G. Johnson,
     J. Ju, R. Kobayashi, R. Kutteh, Z. Lin, R. Littlefield, X. Long, B. Meng,
      T. Nakajima, S. Niu, L. Pollack, M. Rosing, K. Glaesemann, G. Sandrone,
      M. Stave, H. Taylor, G. Thomas, J. H. van Lenthe, A. T. Wong, Z. Zhang.

 Total times  cpu:        3.3s     wall:        0.9s
