 argument  1 = Frag-00000008.nw
  NWChem w/ OpenMP: maximum threads =    7
                                         
                                         
 
 
              Northwest Computational Chemistry Package (NWChem) 6.8
              ------------------------------------------------------
 
 
                    Environmental Molecular Sciences Laboratory
                       Pacific Northwest National Laboratory
                                Richland, WA 99352
 
                              Copyright (c) 1994-2018
                       Pacific Northwest National Laboratory
                            Battelle Memorial Institute
 
             NWChem is an open-source computational chemistry package
                        distributed under the terms of the
                      Educational Community License (ECL) 2.0
             A copy of the license is included with this distribution
                              in the LICENSE.TXT file
 
                                  ACKNOWLEDGMENT
                                  --------------

            This software and its documentation were developed at the
            EMSL at Pacific Northwest National Laboratory, a multiprogram
            national laboratory, operated for the U.S. Department of Energy
            by Battelle under Contract Number DE-AC05-76RL01830. Support
            for this work was provided by the Department of Energy Office
            of Biological and Environmental Research, Office of Basic
            Energy Sciences, and the Office of Advanced Scientific Computing.


           Job information
           ---------------

    hostname        = i10r3n18
    program         = /public/software/apps/nwchem-DCU/6.8.1/hpcx-2.4.1-intel2017/bin/LINUX64/nwchem
    date            = Sat Mar 19 20:03:41 2022

    compiled        = Wed_Feb_19_20:38:21_2020
    source          = /public/software/apps/nwchem-DCU/6.8.1/hpcx-2.4.1-intel2017
    nwchem branch   = Development
    nwchem revision = nwchem_on_git-947-g0b42727
    ga revision     = 5.7.0
    use scalapack   = F
    input           = Frag-00000008.nw
    prefix          = LoadBalanceApplication.
    data base       = ./LoadBalanceApplication.db
    status          = startup
    nproc           =        4
    time left       =     -1s



           Memory information
           ------------------

    heap     =   13107200 doubles =    100.0 Mbytes
    stack    =   13107197 doubles =    100.0 Mbytes
    global   =   26214400 doubles =    200.0 Mbytes (distinct from heap & stack)
    total    =   52428797 doubles =    400.0 Mbytes
    verify   = yes
    hardfail = no 


           Directory information
           ---------------------
 
  0 permanent = .
  0 scratch   = .
 
 
 
 
                                NWChem Input Module
                                -------------------
 
 
                                   Frag-00000008
                                   -------------

 Scaling coordinates for geometry "geometry" by  1.889725989
 (inverse scale =  0.529177249)

 C1  symmetry detected

          ------
          auto-z
          ------
  no constraints, skipping   0.000000000000000E+000
  no constraints, skipping   0.000000000000000E+000
 
 
                             Geometry "geometry" -> ""
                             -------------------------
 
 Output coordinates in angstroms (scale by  1.889725989 to convert to a.u.)
 
  No.       Tag          Charge          X              Y              Z
 ---- ---------------- ---------- -------------- -------------- --------------
    1 C                    6.0000    -0.09406832     0.48204540     0.00039389
    2 O                    8.0000    -0.03888375    -1.85934992    -0.00039753
    3 O                    8.0000    -1.34166904     0.40489684     0.00162674
    4 O                    8.0000     0.62728453    -0.70065339    -0.00218300
    5 C                    6.0000     0.60197179     1.77631963    -0.00079034
    6 H                    1.0000     0.67071205    -2.57547415     0.00550830
    7 H                    1.0000     1.32912056     1.77126162     0.85990827
    8 H                    1.0000    -0.12154301     2.59824709     0.11676208
    9 H                    1.0000     1.10043566     1.89662707    -0.97216971
 
      Atomic Mass 
      ----------- 
 
      C                 12.000000
      O                 15.994910
      H                  1.007825
 

 Effective nuclear repulsion energy (a.u.)     179.0952310314

            Nuclear Dipole moment (a.u.) 
            ----------------------------
        X                 Y               Z
 ---------------- ---------------- ----------------
    -0.0000000000     0.0000000000    -0.0000000000
 


                                Z-matrix (autoz)
                                -------- 

 Units are Angstrom for bonds and degrees for angles
 
      Type          Name      I     J     K     L     M      Value
      ----------- --------  ----- ----- ----- ----- ----- ----------
    1 Stretch                  1     3                       1.24998
    2 Stretch                  1     4                       1.38533
    3 Stretch                  1     5                       1.46956
    4 Stretch                  2     4                       1.33655
    5 Stretch                  2     6                       1.00816
    6 Stretch                  5     7                       1.12675
    7 Stretch                  5     8                       1.10130
    8 Stretch                  5     9                       1.09842
    9 Bend                     1     4     2               118.72402
   10 Bend                     1     5     7               107.52320
   11 Bend                     1     5     8               110.24621
   12 Bend                     1     5     9               108.18667
   13 Bend                     3     1     4               117.84142
   14 Bend                     3     1     5               121.80921
   15 Bend                     4     1     5               120.34928
   16 Bend                     4     2     6               105.36669
   17 Bend                     7     5     8               110.22980
   18 Bend                     7     5     9               112.52957
   19 Bend                     8     5     9               108.10647
   20 Torsion                  1     4     2     6        -179.50947
   21 Torsion                  2     4     1     3          -0.13807
   22 Torsion                  2     4     1     5         179.97022
   23 Torsion                  3     1     5     7         126.70751
   24 Torsion                  3     1     5     8           6.51192
   25 Torsion                  3     1     5     9        -111.51218
   26 Torsion                  4     1     5     7         -53.40517
   27 Torsion                  4     1     5     8        -173.60075
   28 Torsion                  4     1     5     9          68.37515
 
 
            XYZ format geometry
            -------------------
     9
 geometry
 C                    -0.09406832     0.48204540     0.00039389
 O                    -0.03888375    -1.85934992    -0.00039753
 O                    -1.34166904     0.40489684     0.00162674
 O                     0.62728453    -0.70065339    -0.00218300
 C                     0.60197179     1.77631963    -0.00079034
 H                     0.67071205    -2.57547415     0.00550830
 H                     1.32912056     1.77126162     0.85990827
 H                    -0.12154301     2.59824709     0.11676208
 H                     1.10043566     1.89662707    -0.97216971
 
 ==============================================================================
                                internuclear distances
 ------------------------------------------------------------------------------
       center one      |      center two      | atomic units |  angstroms
 ------------------------------------------------------------------------------
    3 O                |   1 C                |     2.36213  |     1.24998
    4 O                |   1 C                |     2.61789  |     1.38533
    4 O                |   2 O                |     2.52571  |     1.33655
    5 C                |   1 C                |     2.77707  |     1.46956
    6 H                |   2 O                |     1.90515  |     1.00816
    7 H                |   5 C                |     2.12925  |     1.12675
    8 H                |   5 C                |     2.08115  |     1.10130
    9 H                |   5 C                |     2.07571  |     1.09842
 ------------------------------------------------------------------------------
                         number of included internuclear distances:          8
 ==============================================================================



 ==============================================================================
                                 internuclear angles
 ------------------------------------------------------------------------------
        center 1       |       center 2       |       center 3       |  degrees
 ------------------------------------------------------------------------------
    3 O                |   1 C                |   4 O                |   117.84
    3 O                |   1 C                |   5 C                |   121.81
    4 O                |   1 C                |   5 C                |   120.35
    4 O                |   2 O                |   6 H                |   105.37
    1 C                |   4 O                |   2 O                |   118.72
    1 C                |   5 C                |   7 H                |   107.52
    1 C                |   5 C                |   8 H                |   110.25
    1 C                |   5 C                |   9 H                |   108.19
    7 H                |   5 C                |   8 H                |   110.23
    7 H                |   5 C                |   9 H                |   112.53
    8 H                |   5 C                |   9 H                |   108.11
 ------------------------------------------------------------------------------
                            number of included internuclear angles:         11
 ==============================================================================





 Summary of "ao basis" -> "" (cartesian)
 ------------------------------------------------------------------------------
       Tag                 Description            Shells   Functions and Types
 ---------------- ------------------------------  ------  ---------------------
 *                           6-31g                    on all atoms 


 
                                 NWChem DFT Module
                                 -----------------
 
 
                                   Frag-00000008
 
 
                      Basis "ao basis" -> "ao basis" (cartesian)
                      -----
  C (Carbon)
  ----------
            Exponent  Coefficients 
       -------------- ---------------------------------------------------------
  1 S  3.04752490E+03  0.001835
  1 S  4.57369510E+02  0.014037
  1 S  1.03948690E+02  0.068843
  1 S  2.92101550E+01  0.232184
  1 S  9.28666300E+00  0.467941
  1 S  3.16392700E+00  0.362312
 
  2 S  7.86827240E+00 -0.119332
  2 S  1.88128850E+00 -0.160854
  2 S  5.44249300E-01  1.143456
 
  3 P  7.86827240E+00  0.068999
  3 P  1.88128850E+00  0.316424
  3 P  5.44249300E-01  0.744308
 
  4 S  1.68714400E-01  1.000000
 
  5 P  1.68714400E-01  1.000000
 
  O (Oxygen)
  ----------
            Exponent  Coefficients 
       -------------- ---------------------------------------------------------
  1 S  5.48467170E+03  0.001831
  1 S  8.25234950E+02  0.013950
  1 S  1.88046960E+02  0.068445
  1 S  5.29645000E+01  0.232714
  1 S  1.68975700E+01  0.470193
  1 S  5.79963530E+00  0.358521
 
  2 S  1.55396160E+01 -0.110778
  2 S  3.59993360E+00 -0.148026
  2 S  1.01376180E+00  1.130767
 
  3 P  1.55396160E+01  0.070874
  3 P  3.59993360E+00  0.339753
  3 P  1.01376180E+00  0.727159
 
  4 S  2.70005800E-01  1.000000
 
  5 P  2.70005800E-01  1.000000
 
  H (Hydrogen)
  ------------
            Exponent  Coefficients 
       -------------- ---------------------------------------------------------
  1 S  1.87311370E+01  0.033495
  1 S  2.82539370E+00  0.234727
  1 S  6.40121700E-01  0.813757
 
  2 S  1.61277800E-01  1.000000
 


 Summary of "ao basis" -> "ao basis" (cartesian)
 ------------------------------------------------------------------------------
       Tag                 Description            Shells   Functions and Types
 ---------------- ------------------------------  ------  ---------------------
 C                           6-31g                   5        9   3s2p
 O                           6-31g                   5        9   3s2p
 H                           6-31g                   2        2   2s




 Summary of "ao basis" -> "ao basis" (cartesian)
 ------------------------------------------------------------------------------
       Tag                 Description            Shells   Functions and Types
 ---------------- ------------------------------  ------  ---------------------
 C                           6-31g                   5        9   3s2p
 O                           6-31g                   5        9   3s2p
 H                           6-31g                   2        2   2s


  Caching 1-el integrals 
 
            General Information
            -------------------
          SCF calculation type: DFT
          Wavefunction type:  closed shell.
          No. of atoms     :     9
          No. of electrons :    40
           Alpha electrons :    20
            Beta electrons :    20
          Charge           :     0
          Spin multiplicity:     1
          Use of symmetry is: off; symmetry adaption is: off
          Maximum number of iterations:  30
          AO basis - number of functions:    53
                     number of shells:    33
          Convergence on energy requested:  1.00D-06
          Convergence on density requested:  1.00D-05
          Convergence on gradient requested:  5.00D-04
 
              XC Information
              --------------
                       M06-2X Method XC Functional
                     Hartree-Fock (Exact) Exchange  0.540          
                        M06-2X Exchange Functional  1.000          
                      M06-2X Correlation Potential  1.000          
 
             Grid Information
             ----------------
          Grid used for XC integration:  medium    
          Radial quadrature: Mura-Knowles        
          Angular quadrature: Lebedev. 
          Tag              B.-S. Rad. Rad. Pts. Rad. Cut. Ang. Pts.
          ---              ---------- --------- --------- ---------
          C                   0.70       49          11.0       434
          O                   0.60       49          11.0       434
          H                   0.35       45          12.0       434
          Grid pruning is: on 
          Number of quadrature shells:   425
          Spatial weights used:  Erf1
 
          Convergence Information
          -----------------------
          Convergence aids based upon iterative change in 
          total energy or number of iterations. 
          Levelshifting, if invoked, occurs when the 
          HOMO/LUMO gap drops below (HL_TOL):  1.00D-02
          DIIS, if invoked, will attempt to extrapolate 
          using up to (NFOCK): 10 stored Fock matrices.

                    Damping( 0%)  Levelshifting(0.5)       DIIS
                  --------------- ------------------- ---------------
          dE  on:    start            ASAP                start   
          dE off:    2 iters         30 iters            30 iters 

 
      Screening Tolerance Information
      -------------------------------
          Density screening/tol_rho:  1.00D-10
          AO Gaussian exp screening on grid/accAOfunc:  14
          CD Gaussian exp screening on grid/accCDfunc:  20
          XC Gaussian exp screening on grid/accXCfunc:  20
          Schwarz screening/accCoul:  1.00D-08

 
      Superposition of Atomic Density Guess
      -------------------------------------
 
 Sum of atomic energies:        -301.57649515
 
      Non-variational initial energy
      ------------------------------

 Total energy =    -303.537697
 1-e energy   =    -768.464662
 2-e energy   =     285.831735
 HOMO         =      -0.295863
 LUMO         =       0.052913
 
   Time after variat. SCF:      0.5
   Time prior to 1st pass:      0.5

 Grid_pts file          = ./LoadBalanceApplication.gridpts.0
 Record size in doubles =  12289        No. of grid_pts per rec  =   3070
 Max. records in memory =     18        Max. recs in file   = 253312716


           Memory utilization after 1st SCF pass: 
           Heap Space remaining (MW):        6.59             6585536
          Stack Space remaining (MW):       13.11            13106660

   convergence    iter        energy       DeltaE   RMS-Dens  Diis-err    time
 ---------------- ----- ----------------- --------- --------- ---------  ------
 d= 0,ls=0.0,diis     1   -303.7626893201 -4.83D+02  4.40D-02  1.31D+00     1.0
 d= 0,ls=0.0,diis     2   -303.4609537001  3.02D-01  2.86D-02  4.86D+00     1.4
 d= 0,ls=0.0,diis     3   -303.9369892080 -4.76D-01  2.55D-03  1.69D-02     1.7
 d= 0,ls=0.0,diis     4   -303.9380182973 -1.03D-03  1.12D-03  1.14D-02     2.0
 d= 0,ls=0.0,diis     5   -303.9390255915 -1.01D-03  3.85D-04  4.51D-04     2.4
  Resetting Diis
 d= 0,ls=0.0,diis     6   -303.9390711374 -4.55D-05  1.96D-04  5.86D-05     2.7
 d= 0,ls=0.0,diis     7   -303.9390795914 -8.45D-06  9.19D-05  9.80D-06     3.0
 d= 0,ls=0.0,diis     8   -303.9390795173  7.41D-08  3.99D-05  1.28D-05     3.4
 d= 0,ls=0.0,diis     9   -303.9390807523 -1.23D-06  1.23D-05  4.89D-07     3.7
 d= 0,ls=0.0,diis    10   -303.9390808015 -4.92D-08  1.04D-05  6.47D-08     4.0
 d= 0,ls=0.0,diis    11   -303.9390808182 -1.67D-08  1.56D-06  1.00D-08     4.4


         Total DFT energy =     -303.939080818231
      One electron energy =     -770.273521182951
           Coulomb energy =      325.117292941261
    Exchange-Corr. energy =      -37.878083607944
 Nuclear repulsion energy =      179.095231031403

 Numeric. integr. density =       39.999995406164

     Total iterative time =      3.9s


 
                       DFT Final Molecular Orbital Analysis
                       ------------------------------------
 
 Vector    1  Occ=2.000000D+00  E=-1.973429D+01
              MO Center=  6.3D-01, -7.0D-01, -2.2D-03, r^2= 1.5D-02
   Bfn.  Coefficient  Atom+Function         Bfn.  Coefficient  Atom+Function  
  ----- ------------  ---------------      ----- ------------  ---------------
    28      0.995692  4 O  s                 29      0.025847  4 O  s          
 
 Vector    2  Occ=2.000000D+00  E=-1.971579D+01
              MO Center= -3.9D-02, -1.9D+00, -4.0D-04, r^2= 1.5D-02
   Bfn.  Coefficient  Atom+Function         Bfn.  Coefficient  Atom+Function  
  ----- ------------  ---------------      ----- ------------  ---------------
    10      0.995628  2 O  s          
 
 Vector    3  Occ=2.000000D+00  E=-1.963513D+01
              MO Center= -1.3D+00,  4.0D-01,  1.6D-03, r^2= 1.5D-02
   Bfn.  Coefficient  Atom+Function         Bfn.  Coefficient  Atom+Function  
  ----- ------------  ---------------      ----- ------------  ---------------
    19      0.995728  3 O  s                 20      0.025656  3 O  s          
 
 Vector    4  Occ=2.000000D+00  E=-1.070508D+01
              MO Center= -9.4D-02,  4.8D-01,  3.9D-04, r^2= 2.8D-02
   Bfn.  Coefficient  Atom+Function         Bfn.  Coefficient  Atom+Function  
  ----- ------------  ---------------      ----- ------------  ---------------
     1      0.995688  1 C  s                  2      0.029549  1 C  s          
 
 Vector    5  Occ=2.000000D+00  E=-1.057760D+01
              MO Center=  6.0D-01,  1.8D+00, -8.0D-04, r^2= 2.8D-02
   Bfn.  Coefficient  Atom+Function         Bfn.  Coefficient  Atom+Function  
  ----- ------------  ---------------      ----- ------------  ---------------
    37      0.995897  5 C  s                 38      0.032528  5 C  s          
    42     -0.030425  5 C  s          
 
 Vector    6  Occ=2.000000D+00  E=-1.348555D+00
              MO Center=  2.8D-01, -1.1D+00, -8.2D-04, r^2= 8.0D-01
   Bfn.  Coefficient  Atom+Function         Bfn.  Coefficient  Atom+Function  
  ----- ------------  ---------------      ----- ------------  ---------------
    33      0.348581  4 O  s                 29      0.345132  4 O  s          
    11      0.307037  2 O  s                 15      0.250519  2 O  s          
    28     -0.158673  4 O  s                 10     -0.137522  2 O  s          
    30     -0.103793  4 O  px                 2      0.101749  1 C  s          
    12      0.099382  2 O  px                13      0.086387  2 O  py         
 
 Vector    7  Occ=2.000000D+00  E=-1.175785D+00
              MO Center= -7.9D-01,  2.0D-01,  8.6D-04, r^2= 1.2D+00
   Bfn.  Coefficient  Atom+Function         Bfn.  Coefficient  Atom+Function  
  ----- ------------  ---------------      ----- ------------  ---------------
    20      0.391534  3 O  s                 24      0.385401  3 O  s          
     2      0.243483  1 C  s                 19     -0.177000  3 O  s          
    21      0.160558  3 O  px                 3     -0.158649  1 C  px         
    15     -0.155428  2 O  s                 11     -0.153707  2 O  s          
     1     -0.116136  1 C  s                 31      0.085412  4 O  py         
 
 Vector    8  Occ=2.000000D+00  E=-1.044860D+00
              MO Center=  1.7D-01, -9.2D-01, -1.4D-04, r^2= 1.8D+00
   Bfn.  Coefficient  Atom+Function         Bfn.  Coefficient  Atom+Function  
  ----- ------------  ---------------      ----- ------------  ---------------
    33     -0.384640  4 O  s                 15      0.366021  2 O  s          
    11      0.311929  2 O  s                 29     -0.292872  4 O  s          
    24      0.183728  3 O  s                 20      0.174038  3 O  s          
     3     -0.168279  1 C  px                31     -0.166392  4 O  py         
    10     -0.137224  2 O  s                 28      0.131099  4 O  s          
 
 Vector    9  Occ=2.000000D+00  E=-8.670519D-01
              MO Center=  4.3D-01,  1.3D+00, -1.1D-02, r^2= 1.8D+00
   Bfn.  Coefficient  Atom+Function         Bfn.  Coefficient  Atom+Function  
  ----- ------------  ---------------      ----- ------------  ---------------
    38      0.342641  5 C  s                 42      0.337905  5 C  s          
    37     -0.179166  5 C  s                  4      0.169264  1 C  py         
     2      0.141390  1 C  s                  3      0.122824  1 C  px         
    33     -0.117105  4 O  s                 24     -0.114014  3 O  s          
    52      0.109600  9 H  s                 50      0.103207  8 H  s          
 
 Vector   10  Occ=2.000000D+00  E=-6.995755D-01
              MO Center=  2.8D-01, -6.7D-01, -3.6D-03, r^2= 3.0D+00
   Bfn.  Coefficient  Atom+Function         Bfn.  Coefficient  Atom+Function  
  ----- ------------  ---------------      ----- ------------  ---------------
    31     -0.371580  4 O  py                13      0.339303  2 O  py         
    35     -0.197268  4 O  py                 2     -0.192318  1 C  s          
    15     -0.159341  2 O  s                 17      0.154668  2 O  py         
    46     -0.155416  6 H  s                  6     -0.140463  1 C  s          
     4      0.127724  1 C  py                33      0.127450  4 O  s          
 
 Vector   11  Occ=2.000000D+00  E=-6.252071D-01
              MO Center=  2.6D-01, -1.1D+00, -1.2D-03, r^2= 1.7D+00
   Bfn.  Coefficient  Atom+Function         Bfn.  Coefficient  Atom+Function  
  ----- ------------  ---------------      ----- ------------  ---------------
    30      0.365642  4 O  px                12      0.276732  2 O  px         
    34      0.239331  4 O  px                13     -0.216420  2 O  py         
    33      0.191559  4 O  s                 16      0.171765  2 O  px         
    29      0.170736  4 O  s                 24      0.168194  3 O  s          
    15     -0.156084  2 O  s                 46      0.151619  6 H  s          
 
 Vector   12  Occ=2.000000D+00  E=-5.843328D-01
              MO Center=  2.7D-01, -2.7D-01, -2.1D-02, r^2= 2.2D+00
   Bfn.  Coefficient  Atom+Function         Bfn.  Coefficient  Atom+Function  
  ----- ------------  ---------------      ----- ------------  ---------------
    32      0.404146  4 O  pz                14      0.266372  2 O  pz         
    36      0.254434  4 O  pz                 5      0.249195  1 C  pz         
    41      0.171189  5 C  pz                18      0.167347  2 O  pz         
    23      0.147812  3 O  pz                 9      0.127251  1 C  pz         
    52     -0.093376  9 H  s                 27      0.075968  3 O  pz         
 
 Vector   13  Occ=2.000000D+00  E=-5.774696D-01
              MO Center= -6.0D-02,  9.0D-01,  3.9D-03, r^2= 2.7D+00
   Bfn.  Coefficient  Atom+Function         Bfn.  Coefficient  Atom+Function  
  ----- ------------  ---------------      ----- ------------  ---------------
     4      0.268531  1 C  py                24     -0.241875  3 O  s          
     6      0.225633  1 C  s                 39     -0.215800  5 C  px         
     2      0.210980  1 C  s                 40     -0.210856  5 C  py         
    21      0.204581  3 O  px                42     -0.192409  5 C  s          
    22      0.162457  3 O  py                31     -0.160507  4 O  py         
 
 Vector   14  Occ=2.000000D+00  E=-5.168783D-01
              MO Center=  1.7D-01,  7.4D-01, -9.7D-03, r^2= 3.5D+00
   Bfn.  Coefficient  Atom+Function         Bfn.  Coefficient  Atom+Function  
  ----- ------------  ---------------      ----- ------------  ---------------
    41      0.268940  5 C  pz                21     -0.217108  3 O  px         
    14     -0.207211  2 O  pz                40     -0.198039  5 C  py         
     3      0.185426  1 C  px                24      0.181120  3 O  s          
    32     -0.164734  4 O  pz                48      0.149797  7 H  s          
    52     -0.145791  9 H  s                 45      0.141134  5 C  pz         
 
 Vector   15  Occ=2.000000D+00  E=-5.137593D-01
              MO Center=  5.6D-02,  8.3D-01, -5.1D-03, r^2= 3.5D+00
   Bfn.  Coefficient  Atom+Function         Bfn.  Coefficient  Atom+Function  
  ----- ------------  ---------------      ----- ------------  ---------------
    41      0.248809  5 C  pz                21      0.225780  3 O  px         
    40      0.226478  5 C  py                 3     -0.197211  1 C  px         
    14     -0.190923  2 O  pz                24     -0.185334  3 O  s          
    50      0.158564  8 H  s                 32     -0.147622  4 O  pz         
     4     -0.145075  1 C  py                45      0.133343  5 C  pz         
 
 Vector   16  Occ=2.000000D+00  E=-4.872877D-01
              MO Center=  6.7D-02,  1.2D+00,  5.9D-02, r^2= 3.3D+00
   Bfn.  Coefficient  Atom+Function         Bfn.  Coefficient  Atom+Function  
  ----- ------------  ---------------      ----- ------------  ---------------
    39      0.341092  5 C  px                21      0.240768  3 O  px         
    50     -0.215359  8 H  s                 12      0.192612  2 O  px         
    51     -0.173446  8 H  s                 43      0.160030  5 C  px         
    48      0.150227  7 H  s                  3     -0.145162  1 C  px         
    40     -0.143794  5 C  py                33     -0.140047  4 O  s          
 
 Vector   17  Occ=2.000000D+00  E=-4.236684D-01
              MO Center= -3.9D-01,  2.5D-01, -1.3D-02, r^2= 3.0D+00
   Bfn.  Coefficient  Atom+Function         Bfn.  Coefficient  Atom+Function  
  ----- ------------  ---------------      ----- ------------  ---------------
    23      0.406377  3 O  pz                14     -0.307531  2 O  pz         
     5      0.286483  1 C  pz                27      0.267627  3 O  pz         
    18     -0.218639  2 O  pz                41     -0.200081  5 C  pz         
     9      0.191988  1 C  pz                52      0.131496  9 H  s          
    45     -0.119712  5 C  pz                53      0.115189  9 H  s          
 
 Vector   18  Occ=2.000000D+00  E=-4.189821D-01
              MO Center=  6.8D-02, -9.2D-01,  2.0D-03, r^2= 2.3D+00
   Bfn.  Coefficient  Atom+Function         Bfn.  Coefficient  Atom+Function  
  ----- ------------  ---------------      ----- ------------  ---------------
    12      0.405510  2 O  px                30     -0.401949  4 O  px         
    34     -0.272032  4 O  px                16      0.268565  2 O  px         
    21     -0.228087  3 O  px                15     -0.214120  2 O  s          
     3      0.206197  1 C  px                33     -0.198006  4 O  s          
    25     -0.142391  3 O  px                46      0.137703  6 H  s          
 
 Vector   19  Occ=2.000000D+00  E=-3.470739D-01
              MO Center= -9.1D-01,  4.0D-01,  4.6D-03, r^2= 1.7D+00
   Bfn.  Coefficient  Atom+Function         Bfn.  Coefficient  Atom+Function  
  ----- ------------  ---------------      ----- ------------  ---------------
    22      0.597909  3 O  py                26      0.400361  3 O  py         
    42     -0.229736  5 C  s                  8      0.227909  1 C  py         
    33      0.213190  4 O  s                 30     -0.211558  4 O  px         
    34     -0.197341  4 O  px                39      0.157141  5 C  px         
    35      0.154900  4 O  py                43      0.140268  5 C  px         
 
 Vector   20  Occ=2.000000D+00  E=-3.370604D-01
              MO Center= -4.7D-02, -9.5D-01, -9.1D-04, r^2= 1.9D+00
   Bfn.  Coefficient  Atom+Function         Bfn.  Coefficient  Atom+Function  
  ----- ------------  ---------------      ----- ------------  ---------------
    14      0.456486  2 O  pz                32     -0.452061  4 O  pz         
    18      0.365324  2 O  pz                36     -0.361049  4 O  pz         
    23      0.289040  3 O  pz                27      0.232503  3 O  pz         
    49     -0.034042  7 H  s                 45      0.028874  5 C  pz         
    53      0.025194  9 H  s          
 
 Vector   21  Occ=0.000000D+00  E= 3.662028D-02
              MO Center= -2.6D-01,  5.2D-01, -1.1D-02, r^2= 2.1D+00
   Bfn.  Coefficient  Atom+Function         Bfn.  Coefficient  Atom+Function  
  ----- ------------  ---------------      ----- ------------  ---------------
     5      0.539360  1 C  pz                 9      0.528207  1 C  pz         
    27     -0.434118  3 O  pz                23     -0.394199  3 O  pz         
    53      0.376543  9 H  s                 49     -0.331721  7 H  s          
    36     -0.243269  4 O  pz                32     -0.234081  4 O  pz         
    45      0.177397  5 C  pz                52      0.112692  9 H  s          
 
 Vector   22  Occ=0.000000D+00  E= 7.274519D-02
              MO Center=  5.6D-01, -1.9D+00,  9.5D-03, r^2= 3.4D+00
   Bfn.  Coefficient  Atom+Function         Bfn.  Coefficient  Atom+Function  
  ----- ------------  ---------------      ----- ------------  ---------------
    47      1.093085  6 H  s                 15     -0.925847  2 O  s          
    33      0.515262  4 O  s                 16     -0.470173  2 O  px         
    42      0.457949  5 C  s                 51     -0.332588  8 H  s          
     6     -0.319811  1 C  s                  7     -0.321006  1 C  px         
    12     -0.314452  2 O  px                34     -0.238241  4 O  px         
 
 Vector   23  Occ=0.000000D+00  E= 1.320333D-01
              MO Center=  4.7D-01, -2.0D-02,  8.3D-03, r^2= 6.7D+00
   Bfn.  Coefficient  Atom+Function         Bfn.  Coefficient  Atom+Function  
  ----- ------------  ---------------      ----- ------------  ---------------
    42      1.542801  5 C  s                 51     -0.949844  8 H  s          
    47     -0.776277  6 H  s                 33      0.739768  4 O  s          
     6     -0.678190  1 C  s                 53     -0.577759  9 H  s          
    17     -0.561473  2 O  py                49     -0.512489  7 H  s          
    13     -0.351325  2 O  py                34     -0.318010  4 O  px         
 
 Vector   24  Occ=0.000000D+00  E= 1.490581D-01
              MO Center=  9.9D-01,  1.1D+00,  6.6D-02, r^2= 5.1D+00
   Bfn.  Coefficient  Atom+Function         Bfn.  Coefficient  Atom+Function  
  ----- ------------  ---------------      ----- ------------  ---------------
    42      1.420769  5 C  s                 49     -1.290518  7 H  s          
    53     -1.116912  9 H  s                 43      0.777824  5 C  px         
    47      0.472826  6 H  s                 17      0.362627  2 O  py         
    24      0.301192  3 O  s                 33     -0.294959  4 O  s          
     7      0.252631  1 C  px                13      0.231929  2 O  py         
 
 Vector   25  Occ=0.000000D+00  E= 1.976250D-01
              MO Center=  6.9D-01,  1.6D+00,  1.5D-01, r^2= 4.3D+00
   Bfn.  Coefficient  Atom+Function         Bfn.  Coefficient  Atom+Function  
  ----- ------------  ---------------      ----- ------------  ---------------
    49      1.309746  7 H  s                 51     -1.159311  8 H  s          
    45     -1.029996  5 C  pz                53     -1.021823  9 H  s          
    44      0.700808  5 C  py                43     -0.570195  5 C  px         
    42      0.382744  5 C  s                 33     -0.329633  4 O  s          
     9      0.312772  1 C  pz                17      0.293330  2 O  py         
 
 Vector   26  Occ=0.000000D+00  E= 2.015558D-01
              MO Center=  4.5D-01,  1.8D+00, -2.6D-01, r^2= 3.9D+00
   Bfn.  Coefficient  Atom+Function         Bfn.  Coefficient  Atom+Function  
  ----- ------------  ---------------      ----- ------------  ---------------
    51      1.411056  8 H  s                 53     -1.287244  9 H  s          
    45     -1.024858  5 C  pz                44     -0.858376  5 C  py         
     6     -0.816303  1 C  s                 49      0.611549  7 H  s          
    43      0.455216  5 C  px                33      0.377584  4 O  s          
     9      0.319605  1 C  pz                41     -0.285941  5 C  pz         
 
 Vector   27  Occ=0.000000D+00  E= 2.536197D-01
              MO Center=  3.6D-01,  6.1D-01,  1.2D-02, r^2= 3.4D+00
   Bfn.  Coefficient  Atom+Function         Bfn.  Coefficient  Atom+Function  
  ----- ------------  ---------------      ----- ------------  ---------------
     6      2.830709  1 C  s                 42     -1.181572  5 C  s          
    44      1.184627  5 C  py                35     -0.780548  4 O  py         
    43      0.675415  5 C  px                24     -0.582445  3 O  s          
    25     -0.404647  3 O  px                31     -0.383259  4 O  py         
    53     -0.373621  9 H  s                 17     -0.358733  2 O  py         
 
 Vector   28  Occ=0.000000D+00  E= 3.194896D-01
              MO Center=  2.4D-01,  9.2D-01, -1.8D-03, r^2= 3.8D+00
   Bfn.  Coefficient  Atom+Function         Bfn.  Coefficient  Atom+Function  
  ----- ------------  ---------------      ----- ------------  ---------------
    42     -2.184352  5 C  s                  8      2.167767  1 C  py         
    44      1.322678  5 C  py                43      0.984400  5 C  px         
    33      0.927338  4 O  s                  7      0.688564  1 C  px         
    24      0.638213  3 O  s                  4      0.550040  1 C  py         
    34     -0.495595  4 O  px                26     -0.470504  3 O  py         
 
 Vector   29  Occ=0.000000D+00  E= 3.895136D-01
              MO Center= -3.1D-01,  5.9D-01,  3.5D-02, r^2= 3.1D+00
   Bfn.  Coefficient  Atom+Function         Bfn.  Coefficient  Atom+Function  
  ----- ------------  ---------------      ----- ------------  ---------------
     7      2.603998  1 C  px                24      2.075835  3 O  s          
     6     -0.958541  1 C  s                 25      0.893694  3 O  px         
    43     -0.788457  5 C  px                35     -0.751007  4 O  py         
    51     -0.638983  8 H  s                 44      0.631931  5 C  py         
    42     -0.494337  5 C  s                 33     -0.444487  4 O  s          
 
 Vector   30  Occ=0.000000D+00  E= 5.779931D-01
              MO Center=  5.7D-02,  8.9D-01,  2.7D-02, r^2= 2.3D+00
   Bfn.  Coefficient  Atom+Function         Bfn.  Coefficient  Atom+Function  
  ----- ------------  ---------------      ----- ------------  ---------------
     9     -0.899712  1 C  pz                 5      0.876483  1 C  pz         
    45     -0.766086  5 C  pz                41      0.389702  5 C  pz         
    53     -0.308841  9 H  s                 52     -0.291501  9 H  s          
    48      0.199800  7 H  s                 49      0.196099  7 H  s          
    43      0.145997  5 C  px                 7     -0.135184  1 C  px         
 
 Vector   31  Occ=0.000000D+00  E= 6.026592D-01
              MO Center=  3.9D-01,  4.8D-01,  4.7D-02, r^2= 2.5D+00
   Bfn.  Coefficient  Atom+Function         Bfn.  Coefficient  Atom+Function  
  ----- ------------  ---------------      ----- ------------  ---------------
     8      1.239121  1 C  py                 6     -0.753440  1 C  s          
    33      0.746447  4 O  s                 44      0.738982  5 C  py         
     4     -0.701742  1 C  py                42     -0.596179  5 C  s          
     2      0.582464  1 C  s                 40     -0.470404  5 C  py         
    43     -0.460212  5 C  px                34     -0.332541  4 O  px         
 
 Vector   32  Occ=0.000000D+00  E= 6.413894D-01
              MO Center=  3.7D-01,  1.4D+00,  5.6D-03, r^2= 2.6D+00
   Bfn.  Coefficient  Atom+Function         Bfn.  Coefficient  Atom+Function  
  ----- ------------  ---------------      ----- ------------  ---------------
    43      0.846368  5 C  px                 6      0.797126  1 C  s          
    40     -0.783131  5 C  py                 8     -0.685745  1 C  py         
    44      0.672670  5 C  py                39     -0.653256  5 C  px         
    24     -0.478740  3 O  s                  7     -0.444119  1 C  px         
    33     -0.389547  4 O  s                 42      0.384240  5 C  s          
 
 Vector   33  Occ=0.000000D+00  E= 6.538551D-01
              MO Center=  6.8D-01,  1.1D+00, -1.0D-01, r^2= 3.2D+00
   Bfn.  Coefficient  Atom+Function         Bfn.  Coefficient  Atom+Function  
  ----- ------------  ---------------      ----- ------------  ---------------
    43      1.848195  5 C  px                 8      1.580010  1 C  py         
     7     -1.481391  1 C  px                33      1.200443  4 O  s          
    44     -1.151573  5 C  py                 6     -0.857607  1 C  s          
    51      0.775205  8 H  s                 24     -0.620595  3 O  s          
    35      0.617937  4 O  py                39     -0.615239  5 C  px         
 
 Vector   34  Occ=0.000000D+00  E= 6.709177D-01
              MO Center=  2.0D-01,  1.4D+00,  3.1D-02, r^2= 3.0D+00
   Bfn.  Coefficient  Atom+Function         Bfn.  Coefficient  Atom+Function  
  ----- ------------  ---------------      ----- ------------  ---------------
    45      2.001832  5 C  pz                 9     -1.203980  1 C  pz         
    41     -0.775137  5 C  pz                49     -0.618077  7 H  s          
    43      0.585835  5 C  px                53      0.500508  9 H  s          
     5      0.457837  1 C  pz                 8      0.404042  1 C  py         
     7     -0.296858  1 C  px                48     -0.293498  7 H  s          
 
 Vector   35  Occ=0.000000D+00  E= 7.149372D-01
              MO Center= -4.7D-01,  4.0D-01, -3.1D-03, r^2= 1.7D+00
   Bfn.  Coefficient  Atom+Function         Bfn.  Coefficient  Atom+Function  
  ----- ------------  ---------------      ----- ------------  ---------------
     7      1.764729  1 C  px                 3     -1.125502  1 C  px         
    42     -0.761768  5 C  s                 44      0.598257  5 C  py         
    24      0.569797  3 O  s                  2      0.453027  1 C  s          
    35     -0.432361  4 O  py                21     -0.390104  3 O  px         
     6      0.357757  1 C  s                 15     -0.355869  2 O  s          
 
 Vector   36  Occ=0.000000D+00  E= 8.185406D-01
              MO Center=  3.6D-01, -5.3D-01,  3.4D-03, r^2= 4.9D+00
   Bfn.  Coefficient  Atom+Function         Bfn.  Coefficient  Atom+Function  
  ----- ------------  ---------------      ----- ------------  ---------------
     6      2.130372  1 C  s                  8      1.092798  1 C  py         
     2     -0.943969  1 C  s                 42     -0.795579  5 C  s          
    46     -0.791177  6 H  s                 44      0.661961  5 C  py         
    47      0.647354  6 H  s                 43      0.541846  5 C  px         
     4     -0.378194  1 C  py                15     -0.287785  2 O  s          
 
 Vector   37  Occ=0.000000D+00  E= 8.402804D-01
              MO Center=  3.0D-01, -7.6D-01,  8.4D-03, r^2= 4.8D+00
   Bfn.  Coefficient  Atom+Function         Bfn.  Coefficient  Atom+Function  
  ----- ------------  ---------------      ----- ------------  ---------------
     6      1.630430  1 C  s                  8      0.999340  1 C  py         
    44      0.796776  5 C  py                 2     -0.765248  1 C  s          
    46      0.744454  6 H  s                 42     -0.614052  5 C  s          
    47     -0.616436  6 H  s                  7      0.566741  1 C  px         
    12     -0.511012  2 O  px                 4     -0.401868  1 C  py         
 
 Vector   38  Occ=0.000000D+00  E= 9.450093D-01
              MO Center=  4.9D-01,  1.5D-02,  1.7D-02, r^2= 5.2D+00
   Bfn.  Coefficient  Atom+Function         Bfn.  Coefficient  Atom+Function  
  ----- ------------  ---------------      ----- ------------  ---------------
    49      0.993283  7 H  s                 53     -0.826639  9 H  s          
    45     -0.811745  5 C  pz                18     -0.701041  2 O  pz         
    14      0.626701  2 O  pz                48     -0.591830  7 H  s          
    41      0.561301  5 C  pz                52      0.534645  9 H  s          
     6     -0.414543  1 C  s                  9      0.287712  1 C  pz         
 
 Vector   39  Occ=0.000000D+00  E= 9.482399D-01
              MO Center=  4.3D-01, -6.0D-01,  9.9D-02, r^2= 4.8D+00
   Bfn.  Coefficient  Atom+Function         Bfn.  Coefficient  Atom+Function  
  ----- ------------  ---------------      ----- ------------  ---------------
    42      1.005681  5 C  s                  8     -0.798775  1 C  py         
    34      0.780028  4 O  px                17      0.732437  2 O  py         
    33     -0.721633  4 O  s                 49     -0.709228  7 H  s          
    16      0.661405  2 O  px                48      0.547822  7 H  s          
    12     -0.458708  2 O  px                30     -0.411544  4 O  px         
 
 Vector   40  Occ=0.000000D+00  E= 9.606121D-01
              MO Center=  4.2D-01, -1.6D-01,  9.1D-02, r^2= 4.8D+00
   Bfn.  Coefficient  Atom+Function         Bfn.  Coefficient  Atom+Function  
  ----- ------------  ---------------      ----- ------------  ---------------
    49      0.752346  7 H  s                 18      0.606542  2 O  pz         
    48     -0.597351  7 H  s                 14     -0.588986  2 O  pz         
    52      0.513151  9 H  s                  9     -0.457656  1 C  pz         
     6     -0.444950  1 C  s                 53     -0.444430  9 H  s          
    36      0.376785  4 O  pz                32     -0.357728  4 O  pz         
 
 Vector   41  Occ=0.000000D+00  E= 9.857992D-01
              MO Center=  2.0D-01,  1.3D+00, -7.0D-02, r^2= 5.3D+00
   Bfn.  Coefficient  Atom+Function         Bfn.  Coefficient  Atom+Function  
  ----- ------------  ---------------      ----- ------------  ---------------
    51      1.109271  8 H  s                 50     -0.917055  8 H  s          
    53     -0.900887  9 H  s                  7      0.819895  1 C  px         
    17     -0.530103  2 O  py                39     -0.523105  5 C  px         
    49     -0.509490  7 H  s                 43      0.506155  5 C  px         
    52      0.489634  9 H  s                 16     -0.415155  2 O  px         
 
 Vector   42  Occ=0.000000D+00  E= 1.005301D+00
              MO Center=  4.4D-01,  2.0D+00, -1.9D-01, r^2= 2.7D+00
   Bfn.  Coefficient  Atom+Function         Bfn.  Coefficient  Atom+Function  
  ----- ------------  ---------------      ----- ------------  ---------------
    42      2.229226  5 C  s                 38     -1.423028  5 C  s          
    51     -1.261465  8 H  s                 53     -1.178558  9 H  s          
     6      1.091296  1 C  s                 44      0.839298  5 C  py         
    49     -0.754628  7 H  s                  2     -0.689083  1 C  s          
    50      0.637672  8 H  s                 52      0.538701  9 H  s          
 
 Vector   43  Occ=0.000000D+00  E= 1.037318D+00
              MO Center= -1.3D+00,  8.0D-02,  4.9D-03, r^2= 3.1D+00
   Bfn.  Coefficient  Atom+Function         Bfn.  Coefficient  Atom+Function  
  ----- ------------  ---------------      ----- ------------  ---------------
     6      1.334408  1 C  s                 25     -1.253621  3 O  px         
    21      0.809869  3 O  px                17     -0.710332  2 O  py         
    42     -0.695211  5 C  s                 35     -0.563015  4 O  py         
    47     -0.407299  6 H  s                 13      0.376292  2 O  py         
     8     -0.361129  1 C  py                24     -0.284980  3 O  s          
 
 Vector   44  Occ=0.000000D+00  E= 1.044137D+00
              MO Center= -5.0D-03, -1.1D-01,  1.9D-02, r^2= 3.6D+00
   Bfn.  Coefficient  Atom+Function         Bfn.  Coefficient  Atom+Function  
  ----- ------------  ---------------      ----- ------------  ---------------
    36      0.909350  4 O  pz                27     -0.636709  3 O  pz         
    32     -0.634666  4 O  pz                49     -0.594477  7 H  s          
    53      0.563624  9 H  s                 23      0.557857  3 O  pz         
    18     -0.531151  2 O  pz                45      0.474010  5 C  pz         
    48      0.283460  7 H  s                 14      0.271840  2 O  pz         
 
 Vector   45  Occ=0.000000D+00  E= 1.083809D+00
              MO Center= -4.0D-01, -2.9D-01, -3.9D-04, r^2= 3.9D+00
   Bfn.  Coefficient  Atom+Function         Bfn.  Coefficient  Atom+Function  
  ----- ------------  ---------------      ----- ------------  ---------------
    42      1.266083  5 C  s                 17      1.155271  2 O  py         
     6     -1.117299  1 C  s                 35      1.118192  4 O  py         
     8      0.914355  1 C  py                26     -0.735038  3 O  py         
    38     -0.725162  5 C  s                 24      0.664312  3 O  s          
    15      0.518903  2 O  s                 47      0.488323  6 H  s          
 
 Vector   46  Occ=0.000000D+00  E= 1.133238D+00
              MO Center=  5.0D-01, -1.1D+00, -6.8D-03, r^2= 3.0D+00
   Bfn.  Coefficient  Atom+Function         Bfn.  Coefficient  Atom+Function  
  ----- ------------  ---------------      ----- ------------  ---------------
    42     -1.130998  5 C  s                  6      1.122493  1 C  s          
    34     -0.967635  4 O  px                33     -0.840601  4 O  s          
     7      0.648648  1 C  px                30      0.615212  4 O  px         
    47      0.612977  6 H  s                  2     -0.586215  1 C  s          
    16      0.543627  2 O  px                15     -0.520135  2 O  s          
 
 Vector   47  Occ=0.000000D+00  E= 1.146883D+00
              MO Center= -5.2D-01, -9.3D-02, -1.3D-02, r^2= 3.2D+00
   Bfn.  Coefficient  Atom+Function         Bfn.  Coefficient  Atom+Function  
  ----- ------------  ---------------      ----- ------------  ---------------
    27     -1.105188  3 O  pz                36     -1.031295  4 O  pz         
     9      1.014115  1 C  pz                23      0.708799  3 O  pz         
    32      0.551303  4 O  pz                18      0.499266  2 O  pz         
    45     -0.326180  5 C  pz                14     -0.231106  2 O  pz         
    52     -0.189410  9 H  s                  8     -0.144577  1 C  py         
 
 Vector   48  Occ=0.000000D+00  E= 1.239313D+00
              MO Center= -8.3D-01,  4.1D-01,  1.2D-02, r^2= 3.0D+00
   Bfn.  Coefficient  Atom+Function         Bfn.  Coefficient  Atom+Function  
  ----- ------------  ---------------      ----- ------------  ---------------
    42     -3.191754  5 C  s                  6      3.047411  1 C  s          
     8      2.188631  1 C  py                26     -1.395179  3 O  py         
    35     -0.909566  4 O  py                43      0.896208  5 C  px         
    22      0.724729  3 O  py                51      0.658179  8 H  s          
     2     -0.640585  1 C  s                 24     -0.583662  3 O  s          
 
 Vector   49  Occ=0.000000D+00  E= 1.377259D+00
              MO Center=  5.4D-01,  1.7D-01, -5.1D-03, r^2= 4.3D+00
   Bfn.  Coefficient  Atom+Function         Bfn.  Coefficient  Atom+Function  
  ----- ------------  ---------------      ----- ------------  ---------------
    42      4.855550  5 C  s                  6     -2.844922  1 C  s          
    38     -1.596467  5 C  s                  8     -1.430409  1 C  py         
    44     -1.076115  5 C  py                11     -0.653422  2 O  s          
    43     -0.577498  5 C  px                16      0.564328  2 O  px         
     2      0.549750  1 C  s                 15      0.543838  2 O  s          
 
 Vector   50  Occ=0.000000D+00  E= 1.486426D+00
              MO Center= -5.9D-02, -7.9D-01, -1.4D-03, r^2= 3.0D+00
   Bfn.  Coefficient  Atom+Function         Bfn.  Coefficient  Atom+Function  
  ----- ------------  ---------------      ----- ------------  ---------------
    42     -2.884857  5 C  s                  6      2.839823  1 C  s          
     8      1.733157  1 C  py                35     -1.585997  4 O  py         
     7      1.480875  1 C  px                16     -1.038336  2 O  px         
    17      0.922861  2 O  py                43      0.775355  5 C  px         
    44      0.757279  5 C  py                33     -0.659232  4 O  s          
 
 Vector   51  Occ=0.000000D+00  E= 1.615661D+00
              MO Center=  3.5D-01, -1.0D+00, -2.2D-03, r^2= 3.4D+00
   Bfn.  Coefficient  Atom+Function         Bfn.  Coefficient  Atom+Function  
  ----- ------------  ---------------      ----- ------------  ---------------
    42      3.649429  5 C  s                 15     -3.167379  2 O  s          
     8     -2.090729  1 C  py                35     -1.592838  4 O  py         
    11      1.534359  2 O  s                  6     -1.335986  1 C  s          
    16     -1.055102  2 O  px                38     -0.992819  5 C  s          
    44     -0.977089  5 C  py                17     -0.752456  2 O  py         
 
 Vector   52  Occ=0.000000D+00  E= 1.839237D+00
              MO Center=  2.3D-01, -5.7D-01, -1.2D-03, r^2= 2.0D+00
   Bfn.  Coefficient  Atom+Function         Bfn.  Coefficient  Atom+Function  
  ----- ------------  ---------------      ----- ------------  ---------------
    33      4.509163  4 O  s                  8      3.006378  1 C  py         
    42     -2.542158  5 C  s                 29     -1.910837  4 O  s          
    34     -1.552804  4 O  px                15     -1.501196  2 O  s          
    43      0.732598  5 C  px                26     -0.679246  3 O  py         
    24      0.654531  3 O  s                 16     -0.590170  2 O  px         
 
 Vector   53  Occ=0.000000D+00  E= 1.888648D+00
              MO Center= -8.0D-01,  3.7D-01,  3.9D-03, r^2= 2.1D+00
   Bfn.  Coefficient  Atom+Function         Bfn.  Coefficient  Atom+Function  
  ----- ------------  ---------------      ----- ------------  ---------------
    24      4.791840  3 O  s                  7      3.264967  1 C  px         
    20     -1.905106  3 O  s                 25      1.727814  3 O  px         
    35     -1.402195  4 O  py                42     -1.400928  5 C  s          
     6     -0.987065  1 C  s                 15     -0.884805  2 O  s          
    44      0.777642  5 C  py                 8      0.636337  1 C  py         
 

 center of mass
 --------------
 x =  -0.07337508 y =  -0.09075764 z =  -0.00024675

 moments of inertia (a.u.)
 ------------------
         457.939305307558          -0.000000000000           0.000000000000
          -0.000000000000         159.379266744575           0.000000000000
           0.000000000000           0.000000000000         605.093836052000
 
     Multipole analysis of the density
     ---------------------------------
 
     L   x y z        total         alpha         beta         nuclear
     -   - - -        -----         -----         ----         -------
     0   0 0 0     -0.000000    -20.000000    -20.000000     40.000000
 
     1   1 0 0      1.506375      0.753187      0.753187     -0.000000
     1   0 1 0      0.097354      0.048677      0.048677      0.000000
     1   0 0 1     -0.009401     -0.004700     -0.004700     -0.000000
 
     2   2 0 0    -24.785304    -53.870653    -53.870653     82.956002
     2   1 1 0     -1.436952     -2.965114     -2.965114      4.493277
     2   1 0 1      0.029448     -0.041067     -0.041067      0.111581
     2   0 2 0    -14.114800   -138.009939   -138.009939    261.905078
     2   0 1 1     -0.101786     -0.023402     -0.023402     -0.054981
     2   0 0 2    -21.014995    -13.539840    -13.539840      6.064685
 

 Task  times  cpu:       24.9s     wall:        4.2s
 
 
                                NWChem Input Module
                                -------------------
 
 
 Summary of allocated global arrays
-----------------------------------
  No active global arrays



                         GA Statistics for process    0
                         ------------------------------

       create   destroy   get      put      acc     scatter   gather  read&inc
calls:  184      184     4485      737     3245        0        0      402     
number of processes/call 8.60e+00 1.26e+01 6.09e+00 0.00e+00 0.00e+00
bytes total:             7.66e+06 1.64e+06 3.49e+06 0.00e+00 0.00e+00 3.22e+03
bytes remote:            5.11e+06 7.27e+05 2.53e+06 0.00e+00 0.00e+00 0.00e+00
Max memory consumed for GA by this process: 238136 bytes
 
MA_summarize_allocated_blocks: starting scan ...
heap block 'gridpts', handle 89, address 0x12b77d80:
	type of elements:		double precision
	number of elements:		6291456
	address of client space:	0x12b77e00
	index for client space:		18445773
	total number of bytes:		50331784
MA_summarize_allocated_blocks: scan completed: 1 heap block, 0 stack blocks
MA usage statistics:

	allocation statistics:
					      heap	     stack
					      ----	     -----
	current number of blocks	         1	         0
	maximum number of blocks	        21	        53
	current total bytes		  50331784	         0
	maximum total bytes		  52173184	  22513096
	maximum total K-bytes		     52174	     22514
	maximum total M-bytes		        53	        23
 
 
                                     CITATION
                                     --------
                Please cite the following reference when publishing
                           results obtained with NWChem:
 
                 M. Valiev, E.J. Bylaska, N. Govind, K. Kowalski,
              T.P. Straatsma, H.J.J. van Dam, D. Wang, J. Nieplocha,
                        E. Apra, T.L. Windus, W.A. de Jong
                 "NWChem: a comprehensive and scalable open-source
                  solution for large scale molecular simulations"
                      Comput. Phys. Commun. 181, 1477 (2010)
                           doi:10.1016/j.cpc.2010.04.018
 
                                      AUTHORS
                                      -------
          E. Apra, E. J. Bylaska, W. A. de Jong, N. Govind, K. Kowalski,
       T. P. Straatsma, M. Valiev, H. J. J. van Dam, D. Wang, T. L. Windus,
        J. Hammond, J. Autschbach, K. Bhaskaran-Nair, J. Brabec, K. Lopata,
    S. A. Fischer, S. Krishnamoorthy, M. Jacquelin, W. Ma, M. Klemm, O. Villa,
      Y. Chen, V. Anisimov, F. Aquino, S. Hirata, M. T. Hackler, V. Konjkov,
            D. Mejia-Rodriguez, T. Risthaus, M. Malagoli, A. Marenich,
   A. Otero-de-la-Roza, J. Mullin, P. Nichols, R. Peverati, J. Pittner, Y. Zhao,
        P.-D. Fan, A. Fonari, M. J. Williamson, R. J. Harrison, J. R. Rehr,
      M. Dupuis, D. Silverstein, D. M. A. Smith, J. Nieplocha, V. Tipparaju,
    M. Krishnan, B. E. Van Kuiken, A. Vazquez-Mayagoitia, L. Jensen, M. Swart,
      Q. Wu, T. Van Voorhis, A. A. Auer, M. Nooijen, L. D. Crosby, E. Brown,
      G. Cisneros, G. I. Fann, H. Fruchtl, J. Garza, K. Hirao, R. A. Kendall,
      J. A. Nichols, K. Tsemekhman, K. Wolinski, J. Anchell, D. E. Bernholdt,
      P. Borowski, T. Clark, D. Clerc, H. Dachsel, M. J. O. Deegan, K. Dyall,
    D. Elwood, E. Glendening, M. Gutowski, A. C. Hess, J. Jaffe, B. G. Johnson,
     J. Ju, R. Kobayashi, R. Kutteh, Z. Lin, R. Littlefield, X. Long, B. Meng,
      T. Nakajima, S. Niu, L. Pollack, M. Rosing, K. Glaesemann, G. Sandrone,
      M. Stave, H. Taylor, G. Thomas, J. H. van Lenthe, A. T. Wong, Z. Zhang.

 Total times  cpu:       25.7s     wall:        4.5s
